/*--------------------------------*- C++ -*----------------------------------*\
| =========                 |                                                 |
| \\      /  F ield         | OpenFOAM: The Open Source CFD Toolbox           |
|  \\    /   O peration     | Version:  2406                                  |
|   \\  /    A nd           | Website:  www.openfoam.com                      |
|    \\/     M anipulation  |                                                 |
\*---------------------------------------------------------------------------*/
FoamFile
{
    version     2.0;
    format      ascii;
    arch        "LSB;label=32;scalar=64";
    class       volScalarField;
    location    "30/fluidRegion";
    object      alphaRhoMagU.vapour;
}
// * * * * * * * * * * * * * * * * * * * * * * * * * * * * * * * * * * * * * //

dimensions      [1 -2 -1 0 0 0 0];

internalField   nonuniform List<scalar> 
75
(
0
0
0
0
0
0
0.10955
0.756944
1.88558
3.45995
5.55903
9.0228
13.3901
17.9245
22.3694
26.6926
30.8871
34.958
38.9083
42.745
46.4698
50.0871
53.5838
56.9292
60.1406
63.2331
66.2031
69.0576
71.7999
74.4345
76.9644
79.3931
81.7252
83.9646
86.1152
88.1804
90.1634
92.0673
93.895
95.649
97.332
98.9463
100.494
101.978
103.4
104.762
106.066
107.315
108.51
109.652
110.744
111.785
112.778
113.724
114.625
115.48
116.293
117.064
117.793
118.482
119.132
119.744
120.318
120.855
121.357
121.823
122.255
122.653
123.018
123.35
123.65
123.918
124.155
124.342
124.511
)
;

boundaryField
{
    inlet
    {
        type            calculated;
        value           uniform 0;
    }
    outlet
    {
        type            calculated;
        value           uniform 124.503;
    }
    fixedWalls
    {
        type            calculated;
        value           nonuniform List<scalar> 
300
(
0
0
0
0
0
0
0.10955
0.756944
1.88558
3.45995
5.55903
9.0228
13.3901
17.9245
22.3694
26.6926
30.8871
34.958
38.9083
42.745
46.4698
50.0871
53.5838
56.9292
60.1406
63.2331
66.2031
69.0576
71.7999
74.4345
76.9644
79.3931
81.7252
83.9646
86.1152
88.1804
90.1634
92.0673
93.895
95.649
97.332
98.9463
100.494
101.978
103.4
104.762
106.066
107.315
108.51
109.652
110.744
111.785
112.778
113.724
114.625
115.48
116.293
117.064
117.793
118.482
119.132
119.744
120.318
120.855
121.357
121.823
122.255
122.653
123.018
123.35
123.65
123.918
124.155
124.342
124.511
0
0
0
0
0
0
0.10955
0.756944
1.88558
3.45995
5.55903
9.0228
13.3901
17.9245
22.3694
26.6926
30.8871
34.958
38.9083
42.745
46.4698
50.0871
53.5838
56.9292
60.1406
63.2331
66.2031
69.0576
71.7999
74.4345
76.9644
79.3931
81.7252
83.9646
86.1152
88.1804
90.1634
92.0673
93.895
95.649
97.332
98.9463
100.494
101.978
103.4
104.762
106.066
107.315
108.51
109.652
110.744
111.785
112.778
113.724
114.625
115.48
116.293
117.064
117.793
118.482
119.132
119.744
120.318
120.855
121.357
121.823
122.255
122.653
123.018
123.35
123.65
123.918
124.155
124.342
124.511
0
0
0
0
0
0
0.10955
0.756944
1.88558
3.45995
5.55903
9.0228
13.3901
17.9245
22.3694
26.6926
30.8871
34.958
38.9083
42.745
46.4698
50.0871
53.5838
56.9292
60.1406
63.2331
66.2031
69.0576
71.7999
74.4345
76.9644
79.3931
81.7252
83.9646
86.1152
88.1804
90.1634
92.0673
93.895
95.649
97.332
98.9463
100.494
101.978
103.4
104.762
106.066
107.315
108.51
109.652
110.744
111.785
112.778
113.724
114.625
115.48
116.293
117.064
117.793
118.482
119.132
119.744
120.318
120.855
121.357
121.823
122.255
122.653
123.018
123.35
123.65
123.918
124.155
124.342
124.511
0
0
0
0
0
0
0.10955
0.756944
1.88558
3.45995
5.55903
9.0228
13.3901
17.9245
22.3694
26.6926
30.8871
34.958
38.9083
42.745
46.4698
50.0871
53.5838
56.9292
60.1406
63.2331
66.2031
69.0576
71.7999
74.4345
76.9644
79.3931
81.7252
83.9646
86.1152
88.1804
90.1634
92.0673
93.895
95.649
97.332
98.9463
100.494
101.978
103.4
104.762
106.066
107.315
108.51
109.652
110.744
111.785
112.778
113.724
114.625
115.48
116.293
117.064
117.793
118.482
119.132
119.744
120.318
120.855
121.357
121.823
122.255
122.653
123.018
123.35
123.65
123.918
124.155
124.342
124.511
)
;
    }
}


// ************************************************************************* //
