/*--------------------------------*- C++ -*----------------------------------*\
| =========                 |                                                 |
| \\      /  F ield         | OpenFOAM: The Open Source CFD Toolbox           |
|  \\    /   O peration     | Version:  2406                                  |
|   \\  /    A nd           | Website:  www.openfoam.com                      |
|    \\/     M anipulation  |                                                 |
\*---------------------------------------------------------------------------*/
FoamFile
{
    version     2.0;
    format      ascii;
    arch        "LSB;label=32;scalar=64";
    class       volScalarField;
    location    "30/fluidRegion";
    object      dgdt.vapour;
}
// * * * * * * * * * * * * * * * * * * * * * * * * * * * * * * * * * * * * * //

dimensions      [0 0 -1 0 0 0 0];

internalField   nonuniform List<scalar> 
75
(
-0
-0
-0
-0
-0
-0
0.186628
1.17546
1.90971
2.66719
3.52359
6.36419
7.36196
7.39019
7.21872
7.01125
6.78772
6.57964
6.37243
6.18337
5.99307
5.81249
5.63781
5.41256
5.17561
4.95432
4.74733
4.55574
4.37226
4.19833
4.02941
3.86795
3.71419
3.56722
3.42637
3.29108
3.16096
3.03565
2.91485
2.79833
2.68585
2.57722
2.47227
2.37083
2.2728
2.17809
2.08667
1.99983
1.91397
1.83047
1.74932
1.67047
1.59385
1.51936
1.44689
1.37635
1.30762
1.24062
1.17525
1.11143
1.04906
0.988064
0.928357
0.869858
0.812496
0.756198
0.700896
0.646521
0.593007
0.540278
0.48825
0.436813
0.385774
0.334482
0.294455
)
;

boundaryField
{
    inlet
    {
        type            calculated;
        value           uniform -0;
    }
    outlet
    {
        type            calculated;
        value           uniform 0.294455;
    }
    fixedWalls
    {
        type            calculated;
        value           nonuniform List<scalar> 
300
(
-0
-0
-0
-0
-0
-0
0.186628
1.17546
1.90971
2.66719
3.52359
6.36419
7.36196
7.39019
7.21872
7.01125
6.78772
6.57964
6.37243
6.18337
5.99307
5.81249
5.63781
5.41256
5.17561
4.95432
4.74733
4.55574
4.37226
4.19833
4.02941
3.86795
3.71419
3.56722
3.42637
3.29108
3.16096
3.03565
2.91485
2.79833
2.68585
2.57722
2.47227
2.37083
2.2728
2.17809
2.08667
1.99983
1.91397
1.83047
1.74932
1.67047
1.59385
1.51936
1.44689
1.37635
1.30762
1.24062
1.17525
1.11143
1.04906
0.988064
0.928357
0.869858
0.812496
0.756198
0.700896
0.646521
0.593007
0.540278
0.48825
0.436813
0.385774
0.334482
0.294455
-0
-0
-0
-0
-0
-0
0.186628
1.17546
1.90971
2.66719
3.52359
6.36419
7.36196
7.39019
7.21872
7.01125
6.78772
6.57964
6.37243
6.18337
5.99307
5.81249
5.63781
5.41256
5.17561
4.95432
4.74733
4.55574
4.37226
4.19833
4.02941
3.86795
3.71419
3.56722
3.42637
3.29108
3.16096
3.03565
2.91485
2.79833
2.68585
2.57722
2.47227
2.37083
2.2728
2.17809
2.08667
1.99983
1.91397
1.83047
1.74932
1.67047
1.59385
1.51936
1.44689
1.37635
1.30762
1.24062
1.17525
1.11143
1.04906
0.988064
0.928357
0.869858
0.812496
0.756198
0.700896
0.646521
0.593007
0.540278
0.48825
0.436813
0.385774
0.334482
0.294455
-0
-0
-0
-0
-0
-0
0.186628
1.17546
1.90971
2.66719
3.52359
6.36419
7.36196
7.39019
7.21872
7.01125
6.78772
6.57964
6.37243
6.18337
5.99307
5.81249
5.63781
5.41256
5.17561
4.95432
4.74733
4.55574
4.37226
4.19833
4.02941
3.86795
3.71419
3.56722
3.42637
3.29108
3.16096
3.03565
2.91485
2.79833
2.68585
2.57722
2.47227
2.37083
2.2728
2.17809
2.08667
1.99983
1.91397
1.83047
1.74932
1.67047
1.59385
1.51936
1.44689
1.37635
1.30762
1.24062
1.17525
1.11143
1.04906
0.988064
0.928357
0.869858
0.812496
0.756198
0.700896
0.646521
0.593007
0.540278
0.48825
0.436813
0.385774
0.334482
0.294455
-0
-0
-0
-0
-0
-0
0.186628
1.17546
1.90971
2.66719
3.52359
6.36419
7.36196
7.39019
7.21872
7.01125
6.78772
6.57964
6.37243
6.18337
5.99307
5.81249
5.63781
5.41256
5.17561
4.95432
4.74733
4.55574
4.37226
4.19833
4.02941
3.86795
3.71419
3.56722
3.42637
3.29108
3.16096
3.03565
2.91485
2.79833
2.68585
2.57722
2.47227
2.37083
2.2728
2.17809
2.08667
1.99983
1.91397
1.83047
1.74932
1.67047
1.59385
1.51936
1.44689
1.37635
1.30762
1.24062
1.17525
1.11143
1.04906
0.988064
0.928357
0.869858
0.812496
0.756198
0.700896
0.646521
0.593007
0.540278
0.48825
0.436813
0.385774
0.334482
0.294455
)
;
    }
}


// ************************************************************************* //
