/*--------------------------------*- C++ -*----------------------------------*\
| =========                 |                                                 |
| \\      /  F ield         | OpenFOAM: The Open Source CFD Toolbox           |
|  \\    /   O peration     | Version:  2406                                  |
|   \\  /    A nd           | Website:  www.openfoam.com                      |
|    \\/     M anipulation  |                                                 |
\*---------------------------------------------------------------------------*/
FoamFile
{
    version     2.0;
    format      ascii;
    arch        "LSB;label=32;scalar=64";
    class       volTensorField;
    location    "30/fluidRegion";
    object      Kd.liquid.structure;
}
// * * * * * * * * * * * * * * * * * * * * * * * * * * * * * * * * * * * * * //

dimensions      [1 -3 -1 0 0 0 0];

internalField   nonuniform List<tensor> 
75
(
(418.492 0 0 0 418.492 0 0 0 418.492)
(418.492 0 0 0 418.492 0 0 0 418.492)
(418.492 0 0 0 418.492 0 0 0 418.492)
(418.492 0 0 0 418.492 0 0 0 418.492)
(418.492 0 0 0 418.492 0 0 0 418.492)
(417.907 0 0 0 417.907 0 0 0 417.907)
(437.518 0 0 0 437.518 0 0 0 437.518)
(529.942 0 0 0 529.942 0 0 0 529.942)
(670.193 0 0 0 670.193 0 0 0 670.193)
(840.223 0 0 0 840.223 0 0 0 840.223)
(1037.12 0 0 0 1037.12 0 0 0 1037.12)
(1316.64 0 0 0 1316.64 0 0 0 1316.64)
(1627.03 0 0 0 1627.03 0 0 0 1627.03)
(1908.41 0 0 0 1908.41 0 0 0 1908.41)
(2153.52 0 0 0 2153.52 0 0 0 2153.52)
(2370.7 0 0 0 2370.7 0 0 0 2370.7)
(2566.61 0 0 0 2566.61 0 0 0 2566.61)
(2746.07 0 0 0 2746.07 0 0 0 2746.07)
(2912.42 0 0 0 2912.42 0 0 0 2912.42)
(3068.06 0 0 0 3068.06 0 0 0 3068.06)
(3214.69 0 0 0 3214.69 0 0 0 3214.69)
(3353.44 0 0 0 3353.44 0 0 0 3353.44)
(3486.15 0 0 0 3486.15 0 0 0 3486.15)
(3666.69 0 0 0 3666.69 0 0 0 3666.69)
(3899.89 0 0 0 3899.89 0 0 0 3899.89)
(4125.74 0 0 0 4125.74 0 0 0 4125.74)
(4344.16 0 0 0 4344.16 0 0 0 4344.16)
(4555.85 0 0 0 4555.85 0 0 0 4555.85)
(4761.03 0 0 0 4761.03 0 0 0 4761.03)
(4959.95 0 0 0 4959.95 0 0 0 4959.95)
(5152.69 0 0 0 5152.69 0 0 0 5152.69)
(5339.39 0 0 0 5339.39 0 0 0 5339.39)
(5520.24 0 0 0 5520.24 0 0 0 5520.24)
(5695.42 0 0 0 5695.42 0 0 0 5695.42)
(5865.07 0 0 0 5865.07 0 0 0 5865.07)
(6029.3 0 0 0 6029.3 0 0 0 6029.3)
(6188.25 0 0 0 6188.25 0 0 0 6188.25)
(6342.01 0 0 0 6342.01 0 0 0 6342.01)
(6490.7 0 0 0 6490.7 0 0 0 6490.7)
(6634.41 0 0 0 6634.41 0 0 0 6634.41)
(6773.25 0 0 0 6773.25 0 0 0 6773.25)
(6907.3 0 0 0 6907.3 0 0 0 6907.3)
(7036.67 0 0 0 7036.67 0 0 0 7036.67)
(7161.45 0 0 0 7161.45 0 0 0 7161.45)
(7281.73 0 0 0 7281.73 0 0 0 7281.73)
(7397.61 0 0 0 7397.61 0 0 0 7397.61)
(7509.19 0 0 0 7509.19 0 0 0 7509.19)
(7616.66 0 0 0 7616.66 0 0 0 7616.66)
(7720 0 0 0 7720 0 0 0 7720)
(7819.28 0 0 0 7819.28 0 0 0 7819.28)
(7914.56 0 0 0 7914.56 0 0 0 7914.56)
(8005.93 0 0 0 8005.93 0 0 0 8005.93)
(8093.46 0 0 0 8093.46 0 0 0 8093.46)
(8177.21 0 0 0 8177.21 0 0 0 8177.21)
(8257.27 0 0 0 8257.27 0 0 0 8257.27)
(8333.68 0 0 0 8333.68 0 0 0 8333.68)
(8406.51 0 0 0 8406.51 0 0 0 8406.51)
(8475.82 0 0 0 8475.82 0 0 0 8475.82)
(8541.67 0 0 0 8541.67 0 0 0 8541.67)
(8604.11 0 0 0 8604.11 0 0 0 8604.11)
(8663.2 0 0 0 8663.2 0 0 0 8663.2)
(8719 0 0 0 8719 0 0 0 8719)
(8771.55 0 0 0 8771.55 0 0 0 8771.55)
(8820.91 0 0 0 8820.91 0 0 0 8820.91)
(8867.11 0 0 0 8867.11 0 0 0 8867.11)
(8910.21 0 0 0 8910.21 0 0 0 8910.21)
(8950.25 0 0 0 8950.25 0 0 0 8950.25)
(8987.3 0 0 0 8987.3 0 0 0 8987.3)
(9021.42 0 0 0 9021.42 0 0 0 9021.42)
(9052.7 0 0 0 9052.7 0 0 0 9052.7)
(9081.13 0 0 0 9081.13 0 0 0 9081.13)
(9106.84 0 0 0 9106.84 0 0 0 9106.84)
(9129.74 0 0 0 9129.74 0 0 0 9129.74)
(9144.77 0 0 0 9144.77 0 0 0 9144.77)
(9159.36 0 0 0 9159.36 0 0 0 9159.36)
)
;

boundaryField
{
    inlet
    {
        type            zeroGradient;
    }
    outlet
    {
        type            zeroGradient;
    }
    fixedWalls
    {
        type            zeroGradient;
    }
}


// ************************************************************************* //
