/*--------------------------------*- C++ -*----------------------------------*\
| =========                 |                                                 |
| \\      /  F ield         | OpenFOAM: The Open Source CFD Toolbox           |
|  \\    /   O peration     | Version:  2406                                  |
|   \\  /    A nd           | Website:  www.openfoam.com                      |
|    \\/     M anipulation  |                                                 |
\*---------------------------------------------------------------------------*/
FoamFile
{
    version     2.0;
    format      ascii;
    arch        "LSB;label=32;scalar=64";
    class       volScalarField;
    location    "0.6/fluidRegion";
    object      alphaRhoMagU.vapour;
}
// * * * * * * * * * * * * * * * * * * * * * * * * * * * * * * * * * * * * * //

dimensions      [1 -2 -1 0 0 0 0];

internalField   nonuniform List<scalar> 
75
(
0
0
0
0
0
0
0
0
0
0
0
0
0
0
0
0.0832519
0.381431
0.860724
1.48637
2.23913
3.08283
3.93466
4.79742
5.68819
6.61928
7.59953
8.63546
9.73048
10.8851
12.0965
13.3617
14.719
16.1232
17.5268
18.9066
20.237
21.5071
22.7168
23.8687
24.9652
26.0089
27.0023
27.9476
28.8473
29.7033
30.5176
31.292
32.0285
32.7288
33.3945
34.0271
34.628
35.1986
35.7401
36.2538
36.7406
37.2017
37.638
38.0505
38.44
38.8073
39.1531
39.478
39.7827
40.0676
40.333
40.5789
40.8054
41.0118
41.1974
41.3616
41.5048
41.6287
41.7385
41.841
)
;

boundaryField
{
    inlet
    {
        type            calculated;
        value           uniform 0;
    }
    outlet
    {
        type            calculated;
        value           uniform 41.8393;
    }
    fixedWalls
    {
        type            calculated;
        value           nonuniform List<scalar> 
300
(
0
0
0
0
0
0
0
0
0
0
0
0
0
0
0
0.0832519
0.381431
0.860724
1.48637
2.23913
3.08283
3.93466
4.79742
5.68819
6.61928
7.59953
8.63546
9.73048
10.8851
12.0965
13.3617
14.719
16.1232
17.5268
18.9066
20.237
21.5071
22.7168
23.8687
24.9652
26.0089
27.0023
27.9476
28.8473
29.7033
30.5176
31.292
32.0285
32.7288
33.3945
34.0271
34.628
35.1986
35.7401
36.2538
36.7406
37.2017
37.638
38.0505
38.44
38.8073
39.1531
39.478
39.7827
40.0676
40.333
40.5789
40.8054
41.0118
41.1974
41.3616
41.5048
41.6287
41.7385
41.841
0
0
0
0
0
0
0
0
0
0
0
0
0
0
0
0.0832519
0.381431
0.860724
1.48637
2.23913
3.08283
3.93466
4.79742
5.68819
6.61928
7.59953
8.63546
9.73048
10.8851
12.0965
13.3617
14.719
16.1232
17.5268
18.9066
20.237
21.5071
22.7168
23.8687
24.9652
26.0089
27.0023
27.9476
28.8473
29.7033
30.5176
31.292
32.0285
32.7288
33.3945
34.0271
34.628
35.1986
35.7401
36.2538
36.7406
37.2017
37.638
38.0505
38.44
38.8073
39.1531
39.478
39.7827
40.0676
40.333
40.5789
40.8054
41.0118
41.1974
41.3616
41.5048
41.6287
41.7385
41.841
0
0
0
0
0
0
0
0
0
0
0
0
0
0
0
0.0832519
0.381431
0.860724
1.48637
2.23913
3.08283
3.93466
4.79742
5.68819
6.61928
7.59953
8.63546
9.73048
10.8851
12.0965
13.3617
14.719
16.1232
17.5268
18.9066
20.237
21.5071
22.7168
23.8687
24.9652
26.0089
27.0023
27.9476
28.8473
29.7033
30.5176
31.292
32.0285
32.7288
33.3945
34.0271
34.628
35.1986
35.7401
36.2538
36.7406
37.2017
37.638
38.0505
38.44
38.8073
39.1531
39.478
39.7827
40.0676
40.333
40.5789
40.8054
41.0118
41.1974
41.3616
41.5048
41.6287
41.7385
41.841
0
0
0
0
0
0
0
0
0
0
0
0
0
0
0
0.0832519
0.381431
0.860724
1.48637
2.23913
3.08283
3.93466
4.79742
5.68819
6.61928
7.59953
8.63546
9.73048
10.8851
12.0965
13.3617
14.719
16.1232
17.5268
18.9066
20.237
21.5071
22.7168
23.8687
24.9652
26.0089
27.0023
27.9476
28.8473
29.7033
30.5176
31.292
32.0285
32.7288
33.3945
34.0271
34.628
35.1986
35.7401
36.2538
36.7406
37.2017
37.638
38.0505
38.44
38.8073
39.1531
39.478
39.7827
40.0676
40.333
40.5789
40.8054
41.0118
41.1974
41.3616
41.5048
41.6287
41.7385
41.841
)
;
    }
}


// ************************************************************************* //
