/*--------------------------------*- C++ -*----------------------------------*\
| =========                 |                                                 |
| \\      /  F ield         | OpenFOAM: The Open Source CFD Toolbox           |
|  \\    /   O peration     | Version:  2406                                  |
|   \\  /    A nd           | Website:  www.openfoam.com                      |
|    \\/     M anipulation  |                                                 |
\*---------------------------------------------------------------------------*/
FoamFile
{
    version     2.0;
    format      ascii;
    arch        "LSB;label=32;scalar=64";
    class       volScalarField;
    location    "0.6/fluidRegion";
    object      dgdt.vapour;
}
// * * * * * * * * * * * * * * * * * * * * * * * * * * * * * * * * * * * * * //

dimensions      [0 0 -1 0 0 0 0];

internalField   nonuniform List<scalar> 
75
(
-0
-0
-0
-0
-0
-3.30629e-21
-2.70045e-20
-7.68775e-20
-2.71221e-19
-9.50236e-19
-2.33855e-18
-4.69721e-18
-8.55437e-18
-3.08148e-18
-1.89671e-16
0.142823
0.502876
0.790046
1.0321
1.23494
1.38477
1.37231
1.39791
1.44958
1.51815
1.60071
1.69325
1.79049
1.88784
1.97992
2.06246
2.23852
2.28657
2.27138
2.22932
2.13855
2.03883
1.94192
1.84864
1.75934
1.67411
1.59287
1.51551
1.44191
1.37138
1.30419
1.24021
1.1792
1.12098
1.06537
1.01219
0.961306
0.912565
0.865839
0.821002
0.777941
0.736545
0.696714
0.658351
0.621364
0.585656
0.551127
0.51766
0.485128
0.453325
0.422084
0.390981
0.359704
0.327479
0.294134
0.259886
0.226636
0.196762
0.175665
0.172599
)
;

boundaryField
{
    inlet
    {
        type            calculated;
        value           uniform -0;
    }
    outlet
    {
        type            calculated;
        value           uniform 0.172599;
    }
    fixedWalls
    {
        type            calculated;
        value           nonuniform List<scalar> 
300
(
-0
-0
-0
-0
-0
-3.30629e-21
-2.70045e-20
-7.68775e-20
-2.71221e-19
-9.50236e-19
-2.33855e-18
-4.69721e-18
-8.55437e-18
-3.08148e-18
-1.89671e-16
0.142823
0.502876
0.790046
1.0321
1.23494
1.38477
1.37231
1.39791
1.44958
1.51815
1.60071
1.69325
1.79049
1.88784
1.97992
2.06246
2.23852
2.28657
2.27138
2.22932
2.13855
2.03883
1.94192
1.84864
1.75934
1.67411
1.59287
1.51551
1.44191
1.37138
1.30419
1.24021
1.1792
1.12098
1.06537
1.01219
0.961306
0.912565
0.865839
0.821002
0.777941
0.736545
0.696714
0.658351
0.621364
0.585656
0.551127
0.51766
0.485128
0.453325
0.422084
0.390981
0.359704
0.327479
0.294134
0.259886
0.226636
0.196762
0.175665
0.172599
-0
-0
-0
-0
-0
-3.30629e-21
-2.70045e-20
-7.68775e-20
-2.71221e-19
-9.50236e-19
-2.33855e-18
-4.69721e-18
-8.55437e-18
-3.08148e-18
-1.89671e-16
0.142823
0.502876
0.790046
1.0321
1.23494
1.38477
1.37231
1.39791
1.44958
1.51815
1.60071
1.69325
1.79049
1.88784
1.97992
2.06246
2.23852
2.28657
2.27138
2.22932
2.13855
2.03883
1.94192
1.84864
1.75934
1.67411
1.59287
1.51551
1.44191
1.37138
1.30419
1.24021
1.1792
1.12098
1.06537
1.01219
0.961306
0.912565
0.865839
0.821002
0.777941
0.736545
0.696714
0.658351
0.621364
0.585656
0.551127
0.51766
0.485128
0.453325
0.422084
0.390981
0.359704
0.327479
0.294134
0.259886
0.226636
0.196762
0.175665
0.172599
-0
-0
-0
-0
-0
-3.30629e-21
-2.70045e-20
-7.68775e-20
-2.71221e-19
-9.50236e-19
-2.33855e-18
-4.69721e-18
-8.55437e-18
-3.08148e-18
-1.89671e-16
0.142823
0.502876
0.790046
1.0321
1.23494
1.38477
1.37231
1.39791
1.44958
1.51815
1.60071
1.69325
1.79049
1.88784
1.97992
2.06246
2.23852
2.28657
2.27138
2.22932
2.13855
2.03883
1.94192
1.84864
1.75934
1.67411
1.59287
1.51551
1.44191
1.37138
1.30419
1.24021
1.1792
1.12098
1.06537
1.01219
0.961306
0.912565
0.865839
0.821002
0.777941
0.736545
0.696714
0.658351
0.621364
0.585656
0.551127
0.51766
0.485128
0.453325
0.422084
0.390981
0.359704
0.327479
0.294134
0.259886
0.226636
0.196762
0.175665
0.172599
-0
-0
-0
-0
-0
-3.30629e-21
-2.70045e-20
-7.68775e-20
-2.71221e-19
-9.50236e-19
-2.33855e-18
-4.69721e-18
-8.55437e-18
-3.08148e-18
-1.89671e-16
0.142823
0.502876
0.790046
1.0321
1.23494
1.38477
1.37231
1.39791
1.44958
1.51815
1.60071
1.69325
1.79049
1.88784
1.97992
2.06246
2.23852
2.28657
2.27138
2.22932
2.13855
2.03883
1.94192
1.84864
1.75934
1.67411
1.59287
1.51551
1.44191
1.37138
1.30419
1.24021
1.1792
1.12098
1.06537
1.01219
0.961306
0.912565
0.865839
0.821002
0.777941
0.736545
0.696714
0.658351
0.621364
0.585656
0.551127
0.51766
0.485128
0.453325
0.422084
0.390981
0.359704
0.327479
0.294134
0.259886
0.226636
0.196762
0.175665
0.172599
)
;
    }
}


// ************************************************************************* //
