/*--------------------------------*- C++ -*----------------------------------*\
| =========                 |                                                 |
| \\      /  F ield         | OpenFOAM: The Open Source CFD Toolbox           |
|  \\    /   O peration     | Version:  2406                                  |
|   \\  /    A nd           | Website:  www.openfoam.com                      |
|    \\/     M anipulation  |                                                 |
\*---------------------------------------------------------------------------*/
FoamFile
{
    version     2.0;
    format      ascii;
    arch        "LSB;label=32;scalar=64";
    class       volScalarField;
    location    "30/fluidRegion";
    object      dgdt.vapour;
}
// * * * * * * * * * * * * * * * * * * * * * * * * * * * * * * * * * * * * * //

dimensions      [0 0 -1 0 0 0 0];

internalField   nonuniform List<scalar> 
75
(
-1.22006e-128
-5.56043e-129
-8.33295e-128
-1.54795e-129
-7.29827e-129
-8.75524e-129
-7.02205e-129
-6.68602e-129
-3.42756e-129
-7.67152e-129
-1.5505e-128
-1.84869e-129
-2.64086e-129
-5.56613e-129
-3.05977e-129
-2.00463e-129
-4.33242e-129
-1.39789e-128
-5.92217e-129
-4.83763e-129
-2.02582e-128
-2.76745e-128
-4.66433e-128
-7.27443e-129
-2.54802e-129
-5.78308e-128
-4.48261e-128
-7.18422e-129
-4.9339e-129
-4.30848e-129
-1.88039e-128
-1.41105e-129
-1.7226e-128
-4.21191e-129
-3.78266e-129
0.000637778
0.0671628
0.119288
0.165863
0.208796
0.24974
0.28973
0.329368
0.368882
0.408112
0.446364
0.481951
0.509913
0.526525
0.54433
0.561516
0.577374
0.590355
0.599774
0.605205
0.598836
0.585956
0.572366
0.557526
0.540965
0.522466
0.50192
0.454544
0.40938
0.36973
0.333574
0.299875
0.26805
0.237774
0.208885
0.181352
0.155295
0.131093
0.109745
0.0941948
)
;

boundaryField
{
    inlet
    {
        type            calculated;
        value           uniform -1.22006e-128;
    }
    outlet
    {
        type            calculated;
        value           uniform 0.0941948;
    }
    fixedWalls
    {
        type            calculated;
        value           nonuniform List<scalar> 
300
(
-1.22006e-128
-5.56043e-129
-8.33295e-128
-1.54795e-129
-7.29827e-129
-8.75524e-129
-7.02205e-129
-6.68602e-129
-3.42756e-129
-7.67152e-129
-1.5505e-128
-1.84869e-129
-2.64086e-129
-5.56613e-129
-3.05977e-129
-2.00463e-129
-4.33242e-129
-1.39789e-128
-5.92217e-129
-4.83763e-129
-2.02582e-128
-2.76745e-128
-4.66433e-128
-7.27443e-129
-2.54802e-129
-5.78308e-128
-4.48261e-128
-7.18422e-129
-4.9339e-129
-4.30848e-129
-1.88039e-128
-1.41105e-129
-1.7226e-128
-4.21191e-129
-3.78266e-129
0.000637778
0.0671628
0.119288
0.165863
0.208796
0.24974
0.28973
0.329368
0.368882
0.408112
0.446364
0.481951
0.509913
0.526525
0.54433
0.561516
0.577374
0.590355
0.599774
0.605205
0.598836
0.585956
0.572366
0.557526
0.540965
0.522466
0.50192
0.454544
0.40938
0.36973
0.333574
0.299875
0.26805
0.237774
0.208885
0.181352
0.155295
0.131093
0.109745
0.0941948
-1.22006e-128
-5.56043e-129
-8.33295e-128
-1.54795e-129
-7.29827e-129
-8.75524e-129
-7.02205e-129
-6.68602e-129
-3.42756e-129
-7.67152e-129
-1.5505e-128
-1.84869e-129
-2.64086e-129
-5.56613e-129
-3.05977e-129
-2.00463e-129
-4.33242e-129
-1.39789e-128
-5.92217e-129
-4.83763e-129
-2.02582e-128
-2.76745e-128
-4.66433e-128
-7.27443e-129
-2.54802e-129
-5.78308e-128
-4.48261e-128
-7.18422e-129
-4.9339e-129
-4.30848e-129
-1.88039e-128
-1.41105e-129
-1.7226e-128
-4.21191e-129
-3.78266e-129
0.000637778
0.0671628
0.119288
0.165863
0.208796
0.24974
0.28973
0.329368
0.368882
0.408112
0.446364
0.481951
0.509913
0.526525
0.54433
0.561516
0.577374
0.590355
0.599774
0.605205
0.598836
0.585956
0.572366
0.557526
0.540965
0.522466
0.50192
0.454544
0.40938
0.36973
0.333574
0.299875
0.26805
0.237774
0.208885
0.181352
0.155295
0.131093
0.109745
0.0941948
-1.22006e-128
-5.56043e-129
-8.33295e-128
-1.54795e-129
-7.29827e-129
-8.75524e-129
-7.02205e-129
-6.68602e-129
-3.42756e-129
-7.67152e-129
-1.5505e-128
-1.84869e-129
-2.64086e-129
-5.56613e-129
-3.05977e-129
-2.00463e-129
-4.33242e-129
-1.39789e-128
-5.92217e-129
-4.83763e-129
-2.02582e-128
-2.76745e-128
-4.66433e-128
-7.27443e-129
-2.54802e-129
-5.78308e-128
-4.48261e-128
-7.18422e-129
-4.9339e-129
-4.30848e-129
-1.88039e-128
-1.41105e-129
-1.7226e-128
-4.21191e-129
-3.78266e-129
0.000637778
0.0671628
0.119288
0.165863
0.208796
0.24974
0.28973
0.329368
0.368882
0.408112
0.446364
0.481951
0.509913
0.526525
0.54433
0.561516
0.577374
0.590355
0.599774
0.605205
0.598836
0.585956
0.572366
0.557526
0.540965
0.522466
0.50192
0.454544
0.40938
0.36973
0.333574
0.299875
0.26805
0.237774
0.208885
0.181352
0.155295
0.131093
0.109745
0.0941948
-1.22006e-128
-5.56043e-129
-8.33295e-128
-1.54795e-129
-7.29827e-129
-8.75524e-129
-7.02205e-129
-6.68602e-129
-3.42756e-129
-7.67152e-129
-1.5505e-128
-1.84869e-129
-2.64086e-129
-5.56613e-129
-3.05977e-129
-2.00463e-129
-4.33242e-129
-1.39789e-128
-5.92217e-129
-4.83763e-129
-2.02582e-128
-2.76745e-128
-4.66433e-128
-7.27443e-129
-2.54802e-129
-5.78308e-128
-4.48261e-128
-7.18422e-129
-4.9339e-129
-4.30848e-129
-1.88039e-128
-1.41105e-129
-1.7226e-128
-4.21191e-129
-3.78266e-129
0.000637778
0.0671628
0.119288
0.165863
0.208796
0.24974
0.28973
0.329368
0.368882
0.408112
0.446364
0.481951
0.509913
0.526525
0.54433
0.561516
0.577374
0.590355
0.599774
0.605205
0.598836
0.585956
0.572366
0.557526
0.540965
0.522466
0.50192
0.454544
0.40938
0.36973
0.333574
0.299875
0.26805
0.237774
0.208885
0.181352
0.155295
0.131093
0.109745
0.0941948
)
;
    }
}


// ************************************************************************* //
