/*--------------------------------*- C++ -*----------------------------------*\
| =========                 |                                                 |
| \\      /  F ield         | OpenFOAM: The Open Source CFD Toolbox           |
|  \\    /   O peration     | Version:  2406                                  |
|   \\  /    A nd           | Website:  www.openfoam.com                      |
|    \\/     M anipulation  |                                                 |
\*---------------------------------------------------------------------------*/
FoamFile
{
    version     2.0;
    format      ascii;
    arch        "LSB;label=32;scalar=64";
    class       volTensorField;
    location    "30/fluidRegion";
    object      Kd.liquid.structure;
}
// * * * * * * * * * * * * * * * * * * * * * * * * * * * * * * * * * * * * * //

dimensions      [1 -3 -1 0 0 0 0];

internalField   nonuniform List<tensor> 
75
(
(418.492 0 0 0 418.492 0 0 0 418.492)
(418.492 0 0 0 418.492 0 0 0 418.492)
(418.492 0 0 0 418.492 0 0 0 418.492)
(418.492 0 0 0 418.492 0 0 0 418.492)
(418.492 0 0 0 418.492 0 0 0 418.492)
(418.465 0 0 0 418.465 0 0 0 418.465)
(418.42 0 0 0 418.42 0 0 0 418.42)
(418.36 0 0 0 418.36 0 0 0 418.36)
(418.283 0 0 0 418.283 0 0 0 418.283)
(418.191 0 0 0 418.191 0 0 0 418.191)
(418.085 0 0 0 418.085 0 0 0 418.085)
(417.963 0 0 0 417.963 0 0 0 417.963)
(417.828 0 0 0 417.828 0 0 0 417.828)
(417.679 0 0 0 417.679 0 0 0 417.679)
(417.517 0 0 0 417.517 0 0 0 417.517)
(417.342 0 0 0 417.342 0 0 0 417.342)
(417.156 0 0 0 417.156 0 0 0 417.156)
(416.958 0 0 0 416.958 0 0 0 416.958)
(416.75 0 0 0 416.75 0 0 0 416.75)
(416.532 0 0 0 416.532 0 0 0 416.532)
(416.305 0 0 0 416.305 0 0 0 416.305)
(416.069 0 0 0 416.069 0 0 0 416.069)
(415.826 0 0 0 415.826 0 0 0 415.826)
(415.575 0 0 0 415.575 0 0 0 415.575)
(415.319 0 0 0 415.319 0 0 0 415.319)
(415.057 0 0 0 415.057 0 0 0 415.057)
(414.79 0 0 0 414.79 0 0 0 414.79)
(414.52 0 0 0 414.52 0 0 0 414.52)
(414.246 0 0 0 414.246 0 0 0 414.246)
(413.97 0 0 0 413.97 0 0 0 413.97)
(413.692 0 0 0 413.692 0 0 0 413.692)
(413.413 0 0 0 413.413 0 0 0 413.413)
(413.133 0 0 0 413.133 0 0 0 413.133)
(412.854 0 0 0 412.854 0 0 0 412.854)
(412.576 0 0 0 412.576 0 0 0 412.576)
(412.288 0 0 0 412.288 0 0 0 412.288)
(420.188 0 0 0 420.188 0 0 0 420.188)
(433.169 0 0 0 433.169 0 0 0 433.169)
(449.791 0 0 0 449.791 0 0 0 449.791)
(469.509 0 0 0 469.509 0 0 0 469.509)
(491.921 0 0 0 491.921 0 0 0 491.921)
(516.778 0 0 0 516.778 0 0 0 516.778)
(543.893 0 0 0 543.893 0 0 0 543.893)
(573.115 0 0 0 573.115 0 0 0 573.115)
(604.291 0 0 0 604.291 0 0 0 604.291)
(637.229 0 0 0 637.229 0 0 0 637.229)
(671.642 0 0 0 671.642 0 0 0 671.642)
(706.974 0 0 0 706.974 0 0 0 706.974)
(742.498 0 0 0 742.498 0 0 0 742.498)
(778.123 0 0 0 778.123 0 0 0 778.123)
(813.854 0 0 0 813.854 0 0 0 813.854)
(849.633 0 0 0 849.633 0 0 0 849.633)
(885.321 0 0 0 885.321 0 0 0 885.321)
(920.738 0 0 0 920.738 0 0 0 920.738)
(955.678 0 0 0 955.678 0 0 0 955.678)
(989.629 0 0 0 989.629 0 0 0 989.629)
(1022.23 0 0 0 1022.23 0 0 0 1022.23)
(1053.44 0 0 0 1053.44 0 0 0 1053.44)
(1083.31 0 0 0 1083.31 0 0 0 1083.31)
(1111.81 0 0 0 1111.81 0 0 0 1111.81)
(1138.94 0 0 0 1138.94 0 0 0 1138.94)
(1164.63 0 0 0 1164.63 0 0 0 1164.63)
(1187.95 0 0 0 1187.95 0 0 0 1187.95)
(1208.68 0 0 0 1208.68 0 0 0 1208.68)
(1227.15 0 0 0 1227.15 0 0 0 1227.15)
(1243.65 0 0 0 1243.65 0 0 0 1243.65)
(1258.36 0 0 0 1258.36 0 0 0 1258.36)
(1271.43 0 0 0 1271.43 0 0 0 1271.43)
(1282.97 0 0 0 1282.97 0 0 0 1282.97)
(1293.08 0 0 0 1293.08 0 0 0 1293.08)
(1301.84 0 0 0 1301.84 0 0 0 1301.84)
(1309.33 0 0 0 1309.33 0 0 0 1309.33)
(1315.65 0 0 0 1315.65 0 0 0 1315.65)
(1320.95 0 0 0 1320.95 0 0 0 1320.95)
(1325.38 0 0 0 1325.38 0 0 0 1325.38)
)
;

boundaryField
{
    inlet
    {
        type            zeroGradient;
    }
    outlet
    {
        type            zeroGradient;
    }
    fixedWalls
    {
        type            zeroGradient;
    }
}


// ************************************************************************* //
