/*--------------------------------*- C++ -*----------------------------------*\
| =========                 |                                                 |
| \\      /  F ield         | OpenFOAM: The Open Source CFD Toolbox           |
|  \\    /   O peration     | Version:  2406                                  |
|   \\  /    A nd           | Website:  www.openfoam.com                      |
|    \\/     M anipulation  |                                                 |
\*---------------------------------------------------------------------------*/
FoamFile
{
    version     2.0;
    format      ascii;
    arch        "LSB;label=32;scalar=64";
    class       volTensorField;
    location    "0.6/fluidRegion";
    object      Kd.liquid.structure;
}
// * * * * * * * * * * * * * * * * * * * * * * * * * * * * * * * * * * * * * //

dimensions      [1 -3 -1 0 0 0 0];

internalField   nonuniform List<tensor> 
75
(
(0 0 0 0 0 0 0 0 0)
(0 0 0 0 0 0 0 0 0)
(0 0 0 0 0 0 0 0 0)
(0 0 0 0 0 0 0 0 0)
(0 0 0 0 0 0 0 0 0)
(563.864 0 0 0 563.864 0 0 0 563.864)
(696.765 0 0 0 696.765 0 0 0 696.765)
(718.212 0 0 0 718.212 0 0 0 718.212)
(834.681 0 0 0 834.681 0 0 0 834.681)
(1013 0 0 0 1013 0 0 0 1013)
(1225.76 0 0 0 1225.76 0 0 0 1225.76)
(1458.7 0 0 0 1458.7 0 0 0 1458.7)
(1690.92 0 0 0 1690.92 0 0 0 1690.92)
(1911.98 0 0 0 1911.98 0 0 0 1911.98)
(2181.31 0 0 0 2181.31 0 0 0 2181.31)
(2464.57 0 0 0 2464.57 0 0 0 2464.57)
(2726.61 0 0 0 2726.61 0 0 0 2726.61)
(2965.9 0 0 0 2965.9 0 0 0 2965.9)
(3186.22 0 0 0 3186.22 0 0 0 3186.22)
(3390.48 0 0 0 3390.48 0 0 0 3390.48)
(3580.97 0 0 0 3580.97 0 0 0 3580.97)
(3759.55 0 0 0 3759.55 0 0 0 3759.55)
(3927.79 0 0 0 3927.79 0 0 0 3927.79)
(4086.89 0 0 0 4086.89 0 0 0 4086.89)
(4237.78 0 0 0 4237.78 0 0 0 4237.78)
(4381.18 0 0 0 4381.18 0 0 0 4381.18)
(4516.65 0 0 0 4516.65 0 0 0 4516.65)
(4644.24 0 0 0 4644.24 0 0 0 4644.24)
(4764.77 0 0 0 4764.77 0 0 0 4764.77)
(4878.91 0 0 0 4878.91 0 0 0 4878.91)
(4987.2 0 0 0 4987.2 0 0 0 4987.2)
(5090.07 0 0 0 5090.07 0 0 0 5090.07)
(5187.97 0 0 0 5187.97 0 0 0 5187.97)
(5281.29 0 0 0 5281.29 0 0 0 5281.29)
(5370.34 0 0 0 5370.34 0 0 0 5370.34)
(5455.42 0 0 0 5455.42 0 0 0 5455.42)
(5536.77 0 0 0 5536.77 0 0 0 5536.77)
(5614.56 0 0 0 5614.56 0 0 0 5614.56)
(5689.35 0 0 0 5689.35 0 0 0 5689.35)
(5785.3 0 0 0 5785.3 0 0 0 5785.3)
(5914.24 0 0 0 5914.24 0 0 0 5914.24)
(6037.54 0 0 0 6037.54 0 0 0 6037.54)
(6155.6 0 0 0 6155.6 0 0 0 6155.6)
(6268.96 0 0 0 6268.96 0 0 0 6268.96)
(6377.88 0 0 0 6377.88 0 0 0 6377.88)
(6482.6 0 0 0 6482.6 0 0 0 6482.6)
(6583.23 0 0 0 6583.23 0 0 0 6583.23)
(6679.89 0 0 0 6679.89 0 0 0 6679.89)
(6772.64 0 0 0 6772.64 0 0 0 6772.64)
(6861.5 0 0 0 6861.5 0 0 0 6861.5)
(6946.49 0 0 0 6946.49 0 0 0 6946.49)
(7027.62 0 0 0 7027.62 0 0 0 7027.62)
(7104.89 0 0 0 7104.89 0 0 0 7104.89)
(7178.31 0 0 0 7178.31 0 0 0 7178.31)
(7247.89 0 0 0 7247.89 0 0 0 7247.89)
(7313.7 0 0 0 7313.7 0 0 0 7313.7)
(7375.78 0 0 0 7375.78 0 0 0 7375.78)
(7434.24 0 0 0 7434.24 0 0 0 7434.24)
(7489.2 0 0 0 7489.2 0 0 0 7489.2)
(7540.8 0 0 0 7540.8 0 0 0 7540.8)
(7589.24 0 0 0 7589.24 0 0 0 7589.24)
(7634.75 0 0 0 7634.75 0 0 0 7634.75)
(7677.61 0 0 0 7677.61 0 0 0 7677.61)
(7718.11 0 0 0 7718.11 0 0 0 7718.11)
(7756.61 0 0 0 7756.61 0 0 0 7756.61)
(7793.5 0 0 0 7793.5 0 0 0 7793.5)
(7829.17 0 0 0 7829.17 0 0 0 7829.17)
(7863.99 0 0 0 7863.99 0 0 0 7863.99)
(7898.24 0 0 0 7898.24 0 0 0 7898.24)
(7932.01 0 0 0 7932.01 0 0 0 7932.01)
(7965.11 0 0 0 7965.11 0 0 0 7965.11)
(7996.8 0 0 0 7996.8 0 0 0 7996.8)
(8025.94 0 0 0 8025.94 0 0 0 8025.94)
(8051.71 0 0 0 8051.71 0 0 0 8051.71)
(8064.62 0 0 0 8064.62 0 0 0 8064.62)
)
;

boundaryField
{
    inlet
    {
        type            zeroGradient;
    }
    outlet
    {
        type            zeroGradient;
    }
    fixedWalls
    {
        type            zeroGradient;
    }
}


// ************************************************************************* //
