/*--------------------------------*- C++ -*----------------------------------*\
| =========                 |                                                 |
| \\      /  F ield         | OpenFOAM: The Open Source CFD Toolbox           |
|  \\    /   O peration     | Version:  2406                                  |
|   \\  /    A nd           | Website:  www.openfoam.com                      |
|    \\/     M anipulation  |                                                 |
\*---------------------------------------------------------------------------*/
FoamFile
{
    version     2.0;
    format      ascii;
    arch        "LSB;label=32;scalar=64";
    class       volScalarField;
    location    "30/fluidRegion";
    object      alphaRhoMagU.vapour;
}
// * * * * * * * * * * * * * * * * * * * * * * * * * * * * * * * * * * * * * //

dimensions      [1 -2 -1 0 0 0 0];

internalField   nonuniform List<scalar> 
75
(
0
0
0
0
0
0
0
0
0
0.141776
0.505673
1.06214
1.80477
2.74533
3.90703
5.31068
6.97081
9.18794
11.639
14.0904
16.4891
18.8258
21.0963
23.2977
25.4296
27.4927
29.4828
31.389
33.2108
34.9527
36.6189
38.2131
39.7391
41.2004
42.6
43.941
45.2258
46.4569
47.6365
48.7667
49.8495
50.8866
51.8799
52.831
53.7414
54.6125
55.4458
56.2426
57.004
57.7313
58.418
59.0614
59.6698
60.2433
60.7846
61.2953
61.7768
62.2305
62.6576
63.059
63.4358
63.7889
64.119
64.4269
64.7132
64.9787
65.2238
65.4491
65.6551
65.8423
66.0111
66.1619
66.2953
66.4099
66.5142
)
;

boundaryField
{
    inlet
    {
        type            calculated;
        value           uniform 0;
    }
    outlet
    {
        type            calculated;
        value           uniform 66.5121;
    }
    fixedWalls
    {
        type            calculated;
        value           nonuniform List<scalar> 
300
(
0
0
0
0
0
0
0
0
0
0.141776
0.505673
1.06214
1.80477
2.74533
3.90703
5.31068
6.97081
9.18794
11.639
14.0904
16.4891
18.8258
21.0963
23.2977
25.4296
27.4927
29.4828
31.389
33.2108
34.9527
36.6189
38.2131
39.7391
41.2004
42.6
43.941
45.2258
46.4569
47.6365
48.7667
49.8495
50.8866
51.8799
52.831
53.7414
54.6125
55.4458
56.2426
57.004
57.7313
58.418
59.0614
59.6698
60.2433
60.7846
61.2953
61.7768
62.2305
62.6576
63.059
63.4358
63.7889
64.119
64.4269
64.7132
64.9787
65.2238
65.4491
65.6551
65.8423
66.0111
66.1619
66.2953
66.4099
66.5142
0
0
0
0
0
0
0
0
0
0.141776
0.505673
1.06214
1.80477
2.74533
3.90703
5.31068
6.97081
9.18794
11.639
14.0904
16.4891
18.8258
21.0963
23.2977
25.4296
27.4927
29.4828
31.389
33.2108
34.9527
36.6189
38.2131
39.7391
41.2004
42.6
43.941
45.2258
46.4569
47.6365
48.7667
49.8495
50.8866
51.8799
52.831
53.7414
54.6125
55.4458
56.2426
57.004
57.7313
58.418
59.0614
59.6698
60.2433
60.7846
61.2953
61.7768
62.2305
62.6576
63.059
63.4358
63.7889
64.119
64.4269
64.7132
64.9787
65.2238
65.4491
65.6551
65.8423
66.0111
66.1619
66.2953
66.4099
66.5142
0
0
0
0
0
0
0
0
0
0.141776
0.505673
1.06214
1.80477
2.74533
3.90703
5.31068
6.97081
9.18794
11.639
14.0904
16.4891
18.8258
21.0963
23.2977
25.4296
27.4927
29.4828
31.389
33.2108
34.9527
36.6189
38.2131
39.7391
41.2004
42.6
43.941
45.2258
46.4569
47.6365
48.7667
49.8495
50.8866
51.8799
52.831
53.7414
54.6125
55.4458
56.2426
57.004
57.7313
58.418
59.0614
59.6698
60.2433
60.7846
61.2953
61.7768
62.2305
62.6576
63.059
63.4358
63.7889
64.119
64.4269
64.7132
64.9787
65.2238
65.4491
65.6551
65.8423
66.0111
66.1619
66.2953
66.4099
66.5142
0
0
0
0
0
0
0
0
0
0.141776
0.505673
1.06214
1.80477
2.74533
3.90703
5.31068
6.97081
9.18794
11.639
14.0904
16.4891
18.8258
21.0963
23.2977
25.4296
27.4927
29.4828
31.389
33.2108
34.9527
36.6189
38.2131
39.7391
41.2004
42.6
43.941
45.2258
46.4569
47.6365
48.7667
49.8495
50.8866
51.8799
52.831
53.7414
54.6125
55.4458
56.2426
57.004
57.7313
58.418
59.0614
59.6698
60.2433
60.7846
61.2953
61.7768
62.2305
62.6576
63.059
63.4358
63.7889
64.119
64.4269
64.7132
64.9787
65.2238
65.4491
65.6551
65.8423
66.0111
66.1619
66.2953
66.4099
66.5142
)
;
    }
}


// ************************************************************************* //
