/*--------------------------------*- C++ -*----------------------------------*\
| =========                 |                                                 |
| \\      /  F ield         | OpenFOAM: The Open Source CFD Toolbox           |
|  \\    /   O peration     | Version:  2406                                  |
|   \\  /    A nd           | Website:  www.openfoam.com                      |
|    \\/     M anipulation  |                                                 |
\*---------------------------------------------------------------------------*/
FoamFile
{
    version     2.0;
    format      ascii;
    arch        "LSB;label=32;scalar=64";
    class       volScalarField;
    location    "30/fluidRegion";
    object      dgdt.vapour;
}
// * * * * * * * * * * * * * * * * * * * * * * * * * * * * * * * * * * * * * //

dimensions      [0 0 -1 0 0 0 0];

internalField   nonuniform List<scalar> 
75
(
-0
-0
-0
-0
-0
-0
-0
-0
-0
0.250998
0.619543
0.931604
1.23954
1.57433
1.95054
2.36292
2.76452
3.89511
4.02723
3.98819
3.89814
3.79192
3.68023
3.56195
3.44532
3.33036
3.20625
3.06046
2.92291
2.79294
2.67047
2.55379
2.44376
2.33953
2.24046
2.14606
2.05593
1.96974
1.88719
1.80804
1.73206
1.65905
1.58885
1.52129
1.45622
1.3935
1.33299
1.27457
1.21814
1.16358
1.1079
1.03484
0.972223
0.915709
0.863371
0.814223
0.76767
0.723317
0.680878
0.640136
0.600917
0.563079
0.526517
0.49108
0.456698
0.423291
0.390793
0.359142
0.328285
0.298174
0.268759
0.239979
0.211735
0.183915
0.159405
)
;

boundaryField
{
    inlet
    {
        type            calculated;
        value           uniform -0;
    }
    outlet
    {
        type            calculated;
        value           uniform 0.159405;
    }
    fixedWalls
    {
        type            calculated;
        value           nonuniform List<scalar> 
300
(
-0
-0
-0
-0
-0
-0
-0
-0
-0
0.250998
0.619543
0.931604
1.23954
1.57433
1.95054
2.36292
2.76452
3.89511
4.02723
3.98819
3.89814
3.79192
3.68023
3.56195
3.44532
3.33036
3.20625
3.06046
2.92291
2.79294
2.67047
2.55379
2.44376
2.33953
2.24046
2.14606
2.05593
1.96974
1.88719
1.80804
1.73206
1.65905
1.58885
1.52129
1.45622
1.3935
1.33299
1.27457
1.21814
1.16358
1.1079
1.03484
0.972223
0.915709
0.863371
0.814223
0.76767
0.723317
0.680878
0.640136
0.600917
0.563079
0.526517
0.49108
0.456698
0.423291
0.390793
0.359142
0.328285
0.298174
0.268759
0.239979
0.211735
0.183915
0.159405
-0
-0
-0
-0
-0
-0
-0
-0
-0
0.250998
0.619543
0.931604
1.23954
1.57433
1.95054
2.36292
2.76452
3.89511
4.02723
3.98819
3.89814
3.79192
3.68023
3.56195
3.44532
3.33036
3.20625
3.06046
2.92291
2.79294
2.67047
2.55379
2.44376
2.33953
2.24046
2.14606
2.05593
1.96974
1.88719
1.80804
1.73206
1.65905
1.58885
1.52129
1.45622
1.3935
1.33299
1.27457
1.21814
1.16358
1.1079
1.03484
0.972223
0.915709
0.863371
0.814223
0.76767
0.723317
0.680878
0.640136
0.600917
0.563079
0.526517
0.49108
0.456698
0.423291
0.390793
0.359142
0.328285
0.298174
0.268759
0.239979
0.211735
0.183915
0.159405
-0
-0
-0
-0
-0
-0
-0
-0
-0
0.250998
0.619543
0.931604
1.23954
1.57433
1.95054
2.36292
2.76452
3.89511
4.02723
3.98819
3.89814
3.79192
3.68023
3.56195
3.44532
3.33036
3.20625
3.06046
2.92291
2.79294
2.67047
2.55379
2.44376
2.33953
2.24046
2.14606
2.05593
1.96974
1.88719
1.80804
1.73206
1.65905
1.58885
1.52129
1.45622
1.3935
1.33299
1.27457
1.21814
1.16358
1.1079
1.03484
0.972223
0.915709
0.863371
0.814223
0.76767
0.723317
0.680878
0.640136
0.600917
0.563079
0.526517
0.49108
0.456698
0.423291
0.390793
0.359142
0.328285
0.298174
0.268759
0.239979
0.211735
0.183915
0.159405
-0
-0
-0
-0
-0
-0
-0
-0
-0
0.250998
0.619543
0.931604
1.23954
1.57433
1.95054
2.36292
2.76452
3.89511
4.02723
3.98819
3.89814
3.79192
3.68023
3.56195
3.44532
3.33036
3.20625
3.06046
2.92291
2.79294
2.67047
2.55379
2.44376
2.33953
2.24046
2.14606
2.05593
1.96974
1.88719
1.80804
1.73206
1.65905
1.58885
1.52129
1.45622
1.3935
1.33299
1.27457
1.21814
1.16358
1.1079
1.03484
0.972223
0.915709
0.863371
0.814223
0.76767
0.723317
0.680878
0.640136
0.600917
0.563079
0.526517
0.49108
0.456698
0.423291
0.390793
0.359142
0.328285
0.298174
0.268759
0.239979
0.211735
0.183915
0.159405
)
;
    }
}


// ************************************************************************* //
