/*--------------------------------*- C++ -*----------------------------------*\
| =========                 |                                                 |
| \\      /  F ield         | OpenFOAM: The Open Source CFD Toolbox           |
|  \\    /   O peration     | Version:  2406                                  |
|   \\  /    A nd           | Website:  www.openfoam.com                      |
|    \\/     M anipulation  |                                                 |
\*---------------------------------------------------------------------------*/
FoamFile
{
    version     2.0;
    format      ascii;
    arch        "LSB;label=32;scalar=64";
    class       volTensorField;
    location    "30/fluidRegion";
    object      Kd.liquid.structure;
}
// * * * * * * * * * * * * * * * * * * * * * * * * * * * * * * * * * * * * * //

dimensions      [1 -3 -1 0 0 0 0];

internalField   nonuniform List<tensor> 
75
(
(418.492 0 0 0 418.492 0 0 0 418.492)
(418.492 0 0 0 418.492 0 0 0 418.492)
(418.492 0 0 0 418.492 0 0 0 418.492)
(418.492 0 0 0 418.492 0 0 0 418.492)
(418.492 0 0 0 418.492 0 0 0 418.492)
(418.244 0 0 0 418.244 0 0 0 418.244)
(417.84 0 0 0 417.84 0 0 0 417.84)
(417.296 0 0 0 417.296 0 0 0 417.296)
(416.627 0 0 0 416.627 0 0 0 416.627)
(441.759 0 0 0 441.759 0 0 0 441.759)
(496.367 0 0 0 496.367 0 0 0 496.367)
(571.232 0 0 0 571.232 0 0 0 571.232)
(661.856 0 0 0 661.856 0 0 0 661.856)
(766.606 0 0 0 766.606 0 0 0 766.606)
(885.034 0 0 0 885.034 0 0 0 885.034)
(1016.27 0 0 0 1016.27 0 0 0 1016.27)
(1158.17 0 0 0 1158.17 0 0 0 1158.17)
(1331.25 0 0 0 1331.25 0 0 0 1331.25)
(1509.34 0 0 0 1509.34 0 0 0 1509.34)
(1672.94 0 0 0 1672.94 0 0 0 1672.94)
(1821.6 0 0 0 1821.6 0 0 0 1821.6)
(1957.68 0 0 0 1957.68 0 0 0 1957.68)
(2083.16 0 0 0 2083.16 0 0 0 2083.16)
(2199.55 0 0 0 2199.55 0 0 0 2199.55)
(2308.09 0 0 0 2308.09 0 0 0 2308.09)
(2409.77 0 0 0 2409.77 0 0 0 2409.77)
(2505.22 0 0 0 2505.22 0 0 0 2505.22)
(2594.52 0 0 0 2594.52 0 0 0 2594.52)
(2678.08 0 0 0 2678.08 0 0 0 2678.08)
(2756.48 0 0 0 2756.48 0 0 0 2756.48)
(2830.26 0 0 0 2830.26 0 0 0 2830.26)
(2899.83 0 0 0 2899.83 0 0 0 2899.83)
(2965.56 0 0 0 2965.56 0 0 0 2965.56)
(3027.76 0 0 0 3027.76 0 0 0 3027.76)
(3086.72 0 0 0 3086.72 0 0 0 3086.72)
(3142.67 0 0 0 3142.67 0 0 0 3142.67)
(3195.81 0 0 0 3195.81 0 0 0 3195.81)
(3246.33 0 0 0 3246.33 0 0 0 3246.33)
(3294.39 0 0 0 3294.39 0 0 0 3294.39)
(3340.15 0 0 0 3340.15 0 0 0 3340.15)
(3383.73 0 0 0 3383.73 0 0 0 3383.73)
(3425.25 0 0 0 3425.25 0 0 0 3425.25)
(3464.82 0 0 0 3464.82 0 0 0 3464.82)
(3502.54 0 0 0 3502.54 0 0 0 3502.54)
(3538.51 0 0 0 3538.51 0 0 0 3538.51)
(3572.81 0 0 0 3572.81 0 0 0 3572.81)
(3605.51 0 0 0 3605.51 0 0 0 3605.51)
(3636.7 0 0 0 3636.7 0 0 0 3636.7)
(3666.42 0 0 0 3666.42 0 0 0 3666.42)
(3694.77 0 0 0 3694.77 0 0 0 3694.77)
(3724.15 0 0 0 3724.15 0 0 0 3724.15)
(3769.97 0 0 0 3769.97 0 0 0 3769.97)
(3813.07 0 0 0 3813.07 0 0 0 3813.07)
(3853.57 0 0 0 3853.57 0 0 0 3853.57)
(3891.79 0 0 0 3891.79 0 0 0 3891.79)
(3927.87 0 0 0 3927.87 0 0 0 3927.87)
(3961.93 0 0 0 3961.93 0 0 0 3961.93)
(3994.09 0 0 0 3994.09 0 0 0 3994.09)
(4024.4 0 0 0 4024.4 0 0 0 4024.4)
(4052.95 0 0 0 4052.95 0 0 0 4052.95)
(4079.8 0 0 0 4079.8 0 0 0 4079.8)
(4105.01 0 0 0 4105.01 0 0 0 4105.01)
(4128.61 0 0 0 4128.61 0 0 0 4128.61)
(4150.67 0 0 0 4150.67 0 0 0 4150.67)
(4171.21 0 0 0 4171.21 0 0 0 4171.21)
(4190.29 0 0 0 4190.29 0 0 0 4190.29)
(4207.93 0 0 0 4207.93 0 0 0 4207.93)
(4224.17 0 0 0 4224.17 0 0 0 4224.17)
(4239.05 0 0 0 4239.05 0 0 0 4239.05)
(4252.59 0 0 0 4252.59 0 0 0 4252.59)
(4264.83 0 0 0 4264.83 0 0 0 4264.83)
(4275.78 0 0 0 4275.78 0 0 0 4275.78)
(4285.51 0 0 0 4285.51 0 0 0 4285.51)
(4293.77 0 0 0 4293.77 0 0 0 4293.77)
(4301.86 0 0 0 4301.86 0 0 0 4301.86)
)
;

boundaryField
{
    inlet
    {
        type            zeroGradient;
    }
    outlet
    {
        type            zeroGradient;
    }
    fixedWalls
    {
        type            zeroGradient;
    }
}


// ************************************************************************* //
