/*--------------------------------*- C++ -*----------------------------------*\
| =========                 |                                                 |
| \\      /  F ield         | OpenFOAM: The Open Source CFD Toolbox           |
|  \\    /   O peration     | Version:  2406                                  |
|   \\  /    A nd           | Website:  www.openfoam.com                      |
|    \\/     M anipulation  |                                                 |
\*---------------------------------------------------------------------------*/
FoamFile
{
    version     2.0;
    format      ascii;
    arch        "LSB;label=32;scalar=64";
    class       volScalarField;
    location    "0.6/fluidRegion";
    object      alphaRhoMagU.vapour;
}
// * * * * * * * * * * * * * * * * * * * * * * * * * * * * * * * * * * * * * //

dimensions      [1 -2 -1 0 0 0 0];

internalField   nonuniform List<scalar> 
75
(
0
0
0
0
0
0
0
0.136829
1.06575
2.688
4.8756
7.54904
10.49
13.5824
17.7328
22.4024
27.1157
31.7691
36.349
40.8445
45.2472
49.5539
53.7634
57.8744
61.885
65.7897
69.554
73.17
76.6451
79.9863
83.1979
86.2851
89.2541
92.1103
94.8587
97.5043
100.051
102.505
104.86
107.098
109.23
111.271
113.224
115.093
116.882
118.593
120.229
121.793
123.287
124.712
126.07
127.363
128.593
129.76
130.868
131.917
132.909
133.846
134.731
135.565
136.351
137.09
137.786
138.441
139.058
139.639
140.186
140.703
141.189
141.645
142.067
142.451
142.787
143.07
143.244
)
;

boundaryField
{
    inlet
    {
        type            calculated;
        value           uniform 0;
    }
    outlet
    {
        type            calculated;
        value           uniform 143.227;
    }
    fixedWalls
    {
        type            calculated;
        value           nonuniform List<scalar> 
300
(
0
0
0
0
0
0
0
0.136829
1.06575
2.688
4.8756
7.54904
10.49
13.5824
17.7328
22.4024
27.1157
31.7691
36.349
40.8445
45.2472
49.5539
53.7634
57.8744
61.885
65.7897
69.554
73.17
76.6451
79.9863
83.1979
86.2851
89.2541
92.1103
94.8587
97.5043
100.051
102.505
104.86
107.098
109.23
111.271
113.224
115.093
116.882
118.593
120.229
121.793
123.287
124.712
126.07
127.363
128.593
129.76
130.868
131.917
132.909
133.846
134.731
135.565
136.351
137.09
137.786
138.441
139.058
139.639
140.186
140.703
141.189
141.645
142.067
142.451
142.787
143.07
143.244
0
0
0
0
0
0
0
0.136829
1.06575
2.688
4.8756
7.54904
10.49
13.5824
17.7328
22.4024
27.1157
31.7691
36.349
40.8445
45.2472
49.5539
53.7634
57.8744
61.885
65.7897
69.554
73.17
76.6451
79.9863
83.1979
86.2851
89.2541
92.1103
94.8587
97.5043
100.051
102.505
104.86
107.098
109.23
111.271
113.224
115.093
116.882
118.593
120.229
121.793
123.287
124.712
126.07
127.363
128.593
129.76
130.868
131.917
132.909
133.846
134.731
135.565
136.351
137.09
137.786
138.441
139.058
139.639
140.186
140.703
141.189
141.645
142.067
142.451
142.787
143.07
143.244
0
0
0
0
0
0
0
0.136829
1.06575
2.688
4.8756
7.54904
10.49
13.5824
17.7328
22.4024
27.1157
31.7691
36.349
40.8445
45.2472
49.5539
53.7634
57.8744
61.885
65.7897
69.554
73.17
76.6451
79.9863
83.1979
86.2851
89.2541
92.1103
94.8587
97.5043
100.051
102.505
104.86
107.098
109.23
111.271
113.224
115.093
116.882
118.593
120.229
121.793
123.287
124.712
126.07
127.363
128.593
129.76
130.868
131.917
132.909
133.846
134.731
135.565
136.351
137.09
137.786
138.441
139.058
139.639
140.186
140.703
141.189
141.645
142.067
142.451
142.787
143.07
143.244
0
0
0
0
0
0
0
0.136829
1.06575
2.688
4.8756
7.54904
10.49
13.5824
17.7328
22.4024
27.1157
31.7691
36.349
40.8445
45.2472
49.5539
53.7634
57.8744
61.885
65.7897
69.554
73.17
76.6451
79.9863
83.1979
86.2851
89.2541
92.1103
94.8587
97.5043
100.051
102.505
104.86
107.098
109.23
111.271
113.224
115.093
116.882
118.593
120.229
121.793
123.287
124.712
126.07
127.363
128.593
129.76
130.868
131.917
132.909
133.846
134.731
135.565
136.351
137.09
137.786
138.441
139.058
139.639
140.186
140.703
141.189
141.645
142.067
142.451
142.787
143.07
143.244
)
;
    }
}


// ************************************************************************* //
