/*--------------------------------*- C++ -*----------------------------------*\
| =========                 |                                                 |
| \\      /  F ield         | OpenFOAM: The Open Source CFD Toolbox           |
|  \\    /   O peration     | Version:  2406                                  |
|   \\  /    A nd           | Website:  www.openfoam.com                      |
|    \\/     M anipulation  |                                                 |
\*---------------------------------------------------------------------------*/
FoamFile
{
    version     2.0;
    format      ascii;
    arch        "LSB;label=32;scalar=64";
    class       volTensorField;
    location    "0.6/fluidRegion";
    object      Kd.liquid.structure;
}
// * * * * * * * * * * * * * * * * * * * * * * * * * * * * * * * * * * * * * //

dimensions      [1 -3 -1 0 0 0 0];

internalField   nonuniform List<tensor> 
75
(
(0 0 0 0 0 0 0 0 0)
(0 0 0 0 0 0 0 0 0)
(0 0 0 0 0 0 0 0 0)
(0 0 0 0 0 0 0 0 0)
(0 0 0 0 0 0 0 0 0)
(563.864 0 0 0 563.864 0 0 0 563.864)
(696.765 0 0 0 696.765 0 0 0 696.765)
(718.108 0 0 0 718.108 0 0 0 718.108)
(834.535 0 0 0 834.535 0 0 0 834.535)
(1012.85 0 0 0 1012.85 0 0 0 1012.85)
(1225.64 0 0 0 1225.64 0 0 0 1225.64)
(1458.69 0 0 0 1458.69 0 0 0 1458.69)
(1691.16 0 0 0 1691.16 0 0 0 1691.16)
(1912.46 0 0 0 1912.46 0 0 0 1912.46)
(2182.04 0 0 0 2182.04 0 0 0 2182.04)
(2465.46 0 0 0 2465.46 0 0 0 2465.46)
(2727.59 0 0 0 2727.59 0 0 0 2727.59)
(2966.92 0 0 0 2966.92 0 0 0 2966.92)
(3187.25 0 0 0 3187.25 0 0 0 3187.25)
(3391.52 0 0 0 3391.52 0 0 0 3391.52)
(3582 0 0 0 3582 0 0 0 3582)
(3760.57 0 0 0 3760.57 0 0 0 3760.57)
(3928.79 0 0 0 3928.79 0 0 0 3928.79)
(4087.87 0 0 0 4087.87 0 0 0 4087.87)
(4238.75 0 0 0 4238.75 0 0 0 4238.75)
(4382.12 0 0 0 4382.12 0 0 0 4382.12)
(4517.57 0 0 0 4517.57 0 0 0 4517.57)
(4645.14 0 0 0 4645.14 0 0 0 4645.14)
(4765.64 0 0 0 4765.64 0 0 0 4765.64)
(4879.76 0 0 0 4879.76 0 0 0 4879.76)
(4988.02 0 0 0 4988.02 0 0 0 4988.02)
(5090.86 0 0 0 5090.86 0 0 0 5090.86)
(5188.74 0 0 0 5188.74 0 0 0 5188.74)
(5282.03 0 0 0 5282.03 0 0 0 5282.03)
(5371.06 0 0 0 5371.06 0 0 0 5371.06)
(5456.12 0 0 0 5456.12 0 0 0 5456.12)
(5537.44 0 0 0 5537.44 0 0 0 5537.44)
(5615.22 0 0 0 5615.22 0 0 0 5615.22)
(5689.99 0 0 0 5689.99 0 0 0 5689.99)
(5786.45 0 0 0 5786.45 0 0 0 5786.45)
(5915.34 0 0 0 5915.34 0 0 0 5915.34)
(6038.6 0 0 0 6038.6 0 0 0 6038.6)
(6156.62 0 0 0 6156.62 0 0 0 6156.62)
(6269.94 0 0 0 6269.94 0 0 0 6269.94)
(6378.82 0 0 0 6378.82 0 0 0 6378.82)
(6483.49 0 0 0 6483.49 0 0 0 6483.49)
(6584.08 0 0 0 6584.08 0 0 0 6584.08)
(6680.69 0 0 0 6680.69 0 0 0 6680.69)
(6773.39 0 0 0 6773.39 0 0 0 6773.39)
(6862.2 0 0 0 6862.2 0 0 0 6862.2)
(6947.14 0 0 0 6947.14 0 0 0 6947.14)
(7028.22 0 0 0 7028.22 0 0 0 7028.22)
(7105.44 0 0 0 7105.44 0 0 0 7105.44)
(7178.82 0 0 0 7178.82 0 0 0 7178.82)
(7248.37 0 0 0 7248.37 0 0 0 7248.37)
(7314.14 0 0 0 7314.14 0 0 0 7314.14)
(7376.21 0 0 0 7376.21 0 0 0 7376.21)
(7434.66 0 0 0 7434.66 0 0 0 7434.66)
(7489.61 0 0 0 7489.61 0 0 0 7489.61)
(7541.22 0 0 0 7541.22 0 0 0 7541.22)
(7589.67 0 0 0 7589.67 0 0 0 7589.67)
(7635.2 0 0 0 7635.2 0 0 0 7635.2)
(7678.06 0 0 0 7678.06 0 0 0 7678.06)
(7718.56 0 0 0 7718.56 0 0 0 7718.56)
(7757.05 0 0 0 7757.05 0 0 0 7757.05)
(7793.91 0 0 0 7793.91 0 0 0 7793.91)
(7829.52 0 0 0 7829.52 0 0 0 7829.52)
(7864.26 0 0 0 7864.26 0 0 0 7864.26)
(7898.42 0 0 0 7898.42 0 0 0 7898.42)
(7932.08 0 0 0 7932.08 0 0 0 7932.08)
(7965.08 0 0 0 7965.08 0 0 0 7965.08)
(7996.69 0 0 0 7996.69 0 0 0 7996.69)
(8025.79 0 0 0 8025.79 0 0 0 8025.79)
(8051.61 0 0 0 8051.61 0 0 0 8051.61)
(8064.67 0 0 0 8064.67 0 0 0 8064.67)
)
;

boundaryField
{
    inlet
    {
        type            zeroGradient;
    }
    outlet
    {
        type            zeroGradient;
    }
    fixedWalls
    {
        type            zeroGradient;
    }
}


// ************************************************************************* //
