/*--------------------------------*- C++ -*----------------------------------*\
| =========                 |                                                 |
| \\      /  F ield         | OpenFOAM: The Open Source CFD Toolbox           |
|  \\    /   O peration     | Version:  2406                                  |
|   \\  /    A nd           | Website:  www.openfoam.com                      |
|    \\/     M anipulation  |                                                 |
\*---------------------------------------------------------------------------*/
FoamFile
{
    version     2.0;
    format      ascii;
    arch        "LSB;label=32;scalar=64";
    class       volScalarField;
    location    "0.6/fluidRegion";
    object      dgdt.vapour;
}
// * * * * * * * * * * * * * * * * * * * * * * * * * * * * * * * * * * * * * //

dimensions      [0 0 -1 0 0 0 0];

internalField   nonuniform List<scalar> 
75
(
-0
-0
-0
-0
-0
-1.319e-67
-3.55617e-67
0.229938
1.65446
2.71921
3.64865
4.45114
4.81884
4.96186
7.31018
7.63423
7.62086
7.52575
7.40151
7.25907
7.09958
6.9389
6.77632
6.61152
6.44464
6.26924
6.01661
5.77878
5.55397
5.34156
5.13416
4.93786
4.75121
4.57309
4.4026
4.23905
4.08187
3.9306
3.78483
3.61393
3.43245
3.27326
3.12666
2.989
2.85846
2.734
2.61488
2.50056
2.39064
2.28474
2.18259
2.08392
1.98852
1.89616
1.80665
1.71982
1.63573
1.55367
1.47373
1.39578
1.31968
1.24532
1.17257
1.10131
1.03142
0.962808
0.895362
0.828992
0.763608
0.699116
0.635403
0.572302
0.509448
0.446058
0.404857
)
;

boundaryField
{
    inlet
    {
        type            calculated;
        value           uniform -0;
    }
    outlet
    {
        type            calculated;
        value           uniform 0.404857;
    }
    fixedWalls
    {
        type            calculated;
        value           nonuniform List<scalar> 
300
(
-0
-0
-0
-0
-0
-1.319e-67
-3.55617e-67
0.229938
1.65446
2.71921
3.64865
4.45114
4.81884
4.96186
7.31018
7.63423
7.62086
7.52575
7.40151
7.25907
7.09958
6.9389
6.77632
6.61152
6.44464
6.26924
6.01661
5.77878
5.55397
5.34156
5.13416
4.93786
4.75121
4.57309
4.4026
4.23905
4.08187
3.9306
3.78483
3.61393
3.43245
3.27326
3.12666
2.989
2.85846
2.734
2.61488
2.50056
2.39064
2.28474
2.18259
2.08392
1.98852
1.89616
1.80665
1.71982
1.63573
1.55367
1.47373
1.39578
1.31968
1.24532
1.17257
1.10131
1.03142
0.962808
0.895362
0.828992
0.763608
0.699116
0.635403
0.572302
0.509448
0.446058
0.404857
-0
-0
-0
-0
-0
-1.319e-67
-3.55617e-67
0.229938
1.65446
2.71921
3.64865
4.45114
4.81884
4.96186
7.31018
7.63423
7.62086
7.52575
7.40151
7.25907
7.09958
6.9389
6.77632
6.61152
6.44464
6.26924
6.01661
5.77878
5.55397
5.34156
5.13416
4.93786
4.75121
4.57309
4.4026
4.23905
4.08187
3.9306
3.78483
3.61393
3.43245
3.27326
3.12666
2.989
2.85846
2.734
2.61488
2.50056
2.39064
2.28474
2.18259
2.08392
1.98852
1.89616
1.80665
1.71982
1.63573
1.55367
1.47373
1.39578
1.31968
1.24532
1.17257
1.10131
1.03142
0.962808
0.895362
0.828992
0.763608
0.699116
0.635403
0.572302
0.509448
0.446058
0.404857
-0
-0
-0
-0
-0
-1.319e-67
-3.55617e-67
0.229938
1.65446
2.71921
3.64865
4.45114
4.81884
4.96186
7.31018
7.63423
7.62086
7.52575
7.40151
7.25907
7.09958
6.9389
6.77632
6.61152
6.44464
6.26924
6.01661
5.77878
5.55397
5.34156
5.13416
4.93786
4.75121
4.57309
4.4026
4.23905
4.08187
3.9306
3.78483
3.61393
3.43245
3.27326
3.12666
2.989
2.85846
2.734
2.61488
2.50056
2.39064
2.28474
2.18259
2.08392
1.98852
1.89616
1.80665
1.71982
1.63573
1.55367
1.47373
1.39578
1.31968
1.24532
1.17257
1.10131
1.03142
0.962808
0.895362
0.828992
0.763608
0.699116
0.635403
0.572302
0.509448
0.446058
0.404857
-0
-0
-0
-0
-0
-1.319e-67
-3.55617e-67
0.229938
1.65446
2.71921
3.64865
4.45114
4.81884
4.96186
7.31018
7.63423
7.62086
7.52575
7.40151
7.25907
7.09958
6.9389
6.77632
6.61152
6.44464
6.26924
6.01661
5.77878
5.55397
5.34156
5.13416
4.93786
4.75121
4.57309
4.4026
4.23905
4.08187
3.9306
3.78483
3.61393
3.43245
3.27326
3.12666
2.989
2.85846
2.734
2.61488
2.50056
2.39064
2.28474
2.18259
2.08392
1.98852
1.89616
1.80665
1.71982
1.63573
1.55367
1.47373
1.39578
1.31968
1.24532
1.17257
1.10131
1.03142
0.962808
0.895362
0.828992
0.763608
0.699116
0.635403
0.572302
0.509448
0.446058
0.404857
)
;
    }
}


// ************************************************************************* //
