/*--------------------------------*- C++ -*----------------------------------*\
| =========                 |                                                 |
| \\      /  F ield         | OpenFOAM: The Open Source CFD Toolbox           |
|  \\    /   O peration     | Version:  2406                                  |
|   \\  /    A nd           | Website:  www.openfoam.com                      |
|    \\/     M anipulation  |                                                 |
\*---------------------------------------------------------------------------*/
FoamFile
{
    version     2.0;
    format      ascii;
    arch        "LSB;label=32;scalar=64";
    class       volScalarField;
    location    "30/fluidRegion";
    object      alphaRhoMagU.vapour;
}
// * * * * * * * * * * * * * * * * * * * * * * * * * * * * * * * * * * * * * //

dimensions      [1 -2 -1 0 0 0 0];

internalField   nonuniform List<scalar> 
75
(
0
0
0
0
0
0
0
0
0.319842
0.939316
1.81016
2.95668
4.40513
6.20703
8.86194
11.9497
15.0839
18.1599
21.1606
24.0795
26.9143
29.6658
32.3354
34.9244
37.4333
39.8472
42.1613
44.38
46.5086
48.5517
50.5134
52.3973
54.2071
55.9419
57.5888
59.1542
60.6539
62.087
63.4574
64.7674
66.0197
67.2165
68.3601
69.4529
70.4968
71.4938
72.4456
73.3538
74.2202
75.0462
75.8335
76.5832
77.2967
77.9751
78.6197
79.2315
79.8114
80.3604
80.8794
81.3692
81.8306
82.2644
82.6712
83.0516
83.4063
83.7358
84.0406
84.3213
84.5783
84.812
85.0229
85.211
85.3775
85.5189
85.6522
)
;

boundaryField
{
    inlet
    {
        type            calculated;
        value           uniform 0;
    }
    outlet
    {
        type            calculated;
        value           uniform 85.6486;
    }
    fixedWalls
    {
        type            calculated;
        value           nonuniform List<scalar> 
300
(
0
0
0
0
0
0
0
0
0.319842
0.939316
1.81016
2.95668
4.40513
6.20703
8.86194
11.9497
15.0839
18.1599
21.1606
24.0795
26.9143
29.6658
32.3354
34.9244
37.4333
39.8472
42.1613
44.38
46.5086
48.5517
50.5134
52.3973
54.2071
55.9419
57.5888
59.1542
60.6539
62.087
63.4574
64.7674
66.0197
67.2165
68.3601
69.4529
70.4968
71.4938
72.4456
73.3538
74.2202
75.0462
75.8335
76.5832
77.2967
77.9751
78.6197
79.2315
79.8114
80.3604
80.8794
81.3692
81.8306
82.2644
82.6712
83.0516
83.4063
83.7358
84.0406
84.3213
84.5783
84.812
85.0229
85.211
85.3775
85.5189
85.6522
0
0
0
0
0
0
0
0
0.319842
0.939316
1.81016
2.95668
4.40513
6.20703
8.86194
11.9497
15.0839
18.1599
21.1606
24.0795
26.9143
29.6658
32.3354
34.9244
37.4333
39.8472
42.1613
44.38
46.5086
48.5517
50.5134
52.3973
54.2071
55.9419
57.5888
59.1542
60.6539
62.087
63.4574
64.7674
66.0197
67.2165
68.3601
69.4529
70.4968
71.4938
72.4456
73.3538
74.2202
75.0462
75.8335
76.5832
77.2967
77.9751
78.6197
79.2315
79.8114
80.3604
80.8794
81.3692
81.8306
82.2644
82.6712
83.0516
83.4063
83.7358
84.0406
84.3213
84.5783
84.812
85.0229
85.211
85.3775
85.5189
85.6522
0
0
0
0
0
0
0
0
0.319842
0.939316
1.81016
2.95668
4.40513
6.20703
8.86194
11.9497
15.0839
18.1599
21.1606
24.0795
26.9143
29.6658
32.3354
34.9244
37.4333
39.8472
42.1613
44.38
46.5086
48.5517
50.5134
52.3973
54.2071
55.9419
57.5888
59.1542
60.6539
62.087
63.4574
64.7674
66.0197
67.2165
68.3601
69.4529
70.4968
71.4938
72.4456
73.3538
74.2202
75.0462
75.8335
76.5832
77.2967
77.9751
78.6197
79.2315
79.8114
80.3604
80.8794
81.3692
81.8306
82.2644
82.6712
83.0516
83.4063
83.7358
84.0406
84.3213
84.5783
84.812
85.0229
85.211
85.3775
85.5189
85.6522
0
0
0
0
0
0
0
0
0.319842
0.939316
1.81016
2.95668
4.40513
6.20703
8.86194
11.9497
15.0839
18.1599
21.1606
24.0795
26.9143
29.6658
32.3354
34.9244
37.4333
39.8472
42.1613
44.38
46.5086
48.5517
50.5134
52.3973
54.2071
55.9419
57.5888
59.1542
60.6539
62.087
63.4574
64.7674
66.0197
67.2165
68.3601
69.4529
70.4968
71.4938
72.4456
73.3538
74.2202
75.0462
75.8335
76.5832
77.2967
77.9751
78.6197
79.2315
79.8114
80.3604
80.8794
81.3692
81.8306
82.2644
82.6712
83.0516
83.4063
83.7358
84.0406
84.3213
84.5783
84.812
85.0229
85.211
85.3775
85.5189
85.6522
)
;
    }
}


// ************************************************************************* //
