/*--------------------------------*- C++ -*----------------------------------*\
| =========                 |                                                 |
| \\      /  F ield         | OpenFOAM: The Open Source CFD Toolbox           |
|  \\    /   O peration     | Version:  2406                                  |
|   \\  /    A nd           | Website:  www.openfoam.com                      |
|    \\/     M anipulation  |                                                 |
\*---------------------------------------------------------------------------*/
FoamFile
{
    version     2.0;
    format      ascii;
    arch        "LSB;label=32;scalar=64";
    class       volScalarField;
    location    "30/fluidRegion";
    object      alpha.vapour;
}
// * * * * * * * * * * * * * * * * * * * * * * * * * * * * * * * * * * * * * //

dimensions      [0 0 0 0 0 0 0];

internalField   nonuniform List<scalar> 
75
(
0
0
0
0
0
0
0
0
0.00766358
0.0186347
0.0318809
0.0469247
0.0633597
0.0812864
0.103786
0.124081
0.141576
0.156503
0.169306
0.180357
0.189966
0.198389
0.205826
0.212437
0.218343
0.223592
0.228283
0.232503
0.23632
0.23979
0.242959
0.245864
0.248539
0.250979
0.25307
0.254823
0.256369
0.257754
0.259015
0.260173
0.261242
0.262235
0.263157
0.264018
0.264821
0.265572
0.266274
0.266931
0.267547
0.268124
0.268665
0.269172
0.269648
0.270093
0.270511
0.270902
0.271267
0.271609
0.271928
0.272225
0.272502
0.272758
0.272996
0.273215
0.273417
0.273602
0.27377
0.273923
0.274059
0.274181
0.274289
0.274381
0.274462
0.274515
0.274618
)
;

boundaryField
{
    inlet
    {
        type            inletOutlet;
        phi             phi.vapour;
        inletValue      uniform 0;
        value           uniform 0;
    }
    outlet
    {
        type            inletOutlet;
        phi             phi.vapour;
        inletValue      uniform 0;
        value           uniform 0.274618;
    }
    fixedWalls
    {
        type            zeroGradient;
    }
}


// ************************************************************************* //
