/*--------------------------------*- C++ -*----------------------------------*\
| =========                 |                                                 |
| \\      /  F ield         | OpenFOAM: The Open Source CFD Toolbox           |
|  \\    /   O peration     | Version:  2406                                  |
|   \\  /    A nd           | Website:  www.openfoam.com                      |
|    \\/     M anipulation  |                                                 |
\*---------------------------------------------------------------------------*/
FoamFile
{
    version     2.0;
    format      ascii;
    arch        "LSB;label=32;scalar=64";
    class       volScalarField;
    location    "30/fluidRegion";
    object      dgdt.vapour;
}
// * * * * * * * * * * * * * * * * * * * * * * * * * * * * * * * * * * * * * //

dimensions      [0 0 -1 0 0 0 0];

internalField   nonuniform List<scalar> 
75
(
-0
-0
-0
-0
-0
-0
-0
-0
0.582628
1.03049
1.46598
1.92609
2.44624
3.01126
4.76564
5.11399
5.10754
5.00219
4.87274
4.73232
4.5883
4.44756
4.30966
4.17434
4.04166
3.87353
3.70867
3.55417
3.40853
3.27056
3.13939
3.0143
2.89472
2.7802
2.65632
2.51988
2.40067
2.29083
2.18775
2.09028
1.99751
1.909
1.8244
1.74342
1.66584
1.59141
1.5194
1.45031
1.38386
1.31985
1.25814
1.19855
1.14098
1.08528
1.03137
0.979112
0.928426
0.879214
0.831385
0.784856
0.739546
0.695378
0.652282
0.610186
0.569027
0.528745
0.489282
0.450584
0.412595
0.375258
0.338503
0.302235
0.266291
0.230431
0.199983
)
;

boundaryField
{
    inlet
    {
        type            calculated;
        value           uniform -0;
    }
    outlet
    {
        type            calculated;
        value           uniform 0.199983;
    }
    fixedWalls
    {
        type            calculated;
        value           nonuniform List<scalar> 
300
(
-0
-0
-0
-0
-0
-0
-0
-0
0.582628
1.03049
1.46598
1.92609
2.44624
3.01126
4.76564
5.11399
5.10754
5.00219
4.87274
4.73232
4.5883
4.44756
4.30966
4.17434
4.04166
3.87353
3.70867
3.55417
3.40853
3.27056
3.13939
3.0143
2.89472
2.7802
2.65632
2.51988
2.40067
2.29083
2.18775
2.09028
1.99751
1.909
1.8244
1.74342
1.66584
1.59141
1.5194
1.45031
1.38386
1.31985
1.25814
1.19855
1.14098
1.08528
1.03137
0.979112
0.928426
0.879214
0.831385
0.784856
0.739546
0.695378
0.652282
0.610186
0.569027
0.528745
0.489282
0.450584
0.412595
0.375258
0.338503
0.302235
0.266291
0.230431
0.199983
-0
-0
-0
-0
-0
-0
-0
-0
0.582628
1.03049
1.46598
1.92609
2.44624
3.01126
4.76564
5.11399
5.10754
5.00219
4.87274
4.73232
4.5883
4.44756
4.30966
4.17434
4.04166
3.87353
3.70867
3.55417
3.40853
3.27056
3.13939
3.0143
2.89472
2.7802
2.65632
2.51988
2.40067
2.29083
2.18775
2.09028
1.99751
1.909
1.8244
1.74342
1.66584
1.59141
1.5194
1.45031
1.38386
1.31985
1.25814
1.19855
1.14098
1.08528
1.03137
0.979112
0.928426
0.879214
0.831385
0.784856
0.739546
0.695378
0.652282
0.610186
0.569027
0.528745
0.489282
0.450584
0.412595
0.375258
0.338503
0.302235
0.266291
0.230431
0.199983
-0
-0
-0
-0
-0
-0
-0
-0
0.582628
1.03049
1.46598
1.92609
2.44624
3.01126
4.76564
5.11399
5.10754
5.00219
4.87274
4.73232
4.5883
4.44756
4.30966
4.17434
4.04166
3.87353
3.70867
3.55417
3.40853
3.27056
3.13939
3.0143
2.89472
2.7802
2.65632
2.51988
2.40067
2.29083
2.18775
2.09028
1.99751
1.909
1.8244
1.74342
1.66584
1.59141
1.5194
1.45031
1.38386
1.31985
1.25814
1.19855
1.14098
1.08528
1.03137
0.979112
0.928426
0.879214
0.831385
0.784856
0.739546
0.695378
0.652282
0.610186
0.569027
0.528745
0.489282
0.450584
0.412595
0.375258
0.338503
0.302235
0.266291
0.230431
0.199983
-0
-0
-0
-0
-0
-0
-0
-0
0.582628
1.03049
1.46598
1.92609
2.44624
3.01126
4.76564
5.11399
5.10754
5.00219
4.87274
4.73232
4.5883
4.44756
4.30966
4.17434
4.04166
3.87353
3.70867
3.55417
3.40853
3.27056
3.13939
3.0143
2.89472
2.7802
2.65632
2.51988
2.40067
2.29083
2.18775
2.09028
1.99751
1.909
1.8244
1.74342
1.66584
1.59141
1.5194
1.45031
1.38386
1.31985
1.25814
1.19855
1.14098
1.08528
1.03137
0.979112
0.928426
0.879214
0.831385
0.784856
0.739546
0.695378
0.652282
0.610186
0.569027
0.528745
0.489282
0.450584
0.412595
0.375258
0.338503
0.302235
0.266291
0.230431
0.199983
)
;
    }
}


// ************************************************************************* //
