/*--------------------------------*- C++ -*----------------------------------*\
| =========                 |                                                 |
| \\      /  F ield         | OpenFOAM: The Open Source CFD Toolbox           |
|  \\    /   O peration     | Version:  2406                                  |
|   \\  /    A nd           | Website:  www.openfoam.com                      |
|    \\/     M anipulation  |                                                 |
\*---------------------------------------------------------------------------*/
FoamFile
{
    version     2.0;
    format      ascii;
    arch        "LSB;label=32;scalar=64";
    class       volTensorField;
    location    "30/fluidRegion";
    object      Kd.liquid.structure;
}
// * * * * * * * * * * * * * * * * * * * * * * * * * * * * * * * * * * * * * //

dimensions      [1 -3 -1 0 0 0 0];

internalField   nonuniform List<tensor> 
75
(
(418.492 0 0 0 418.492 0 0 0 418.492)
(418.492 0 0 0 418.492 0 0 0 418.492)
(418.492 0 0 0 418.492 0 0 0 418.492)
(418.492 0 0 0 418.492 0 0 0 418.492)
(418.492 0 0 0 418.492 0 0 0 418.492)
(418.136 0 0 0 418.136 0 0 0 418.136)
(417.562 0 0 0 417.562 0 0 0 417.562)
(416.792 0 0 0 416.792 0 0 0 416.792)
(468.98 0 0 0 468.98 0 0 0 468.98)
(555.194 0 0 0 555.194 0 0 0 555.194)
(662.367 0 0 0 662.367 0 0 0 662.367)
(789.004 0 0 0 789.004 0 0 0 789.004)
(933.183 0 0 0 933.183 0 0 0 933.183)
(1094.16 0 0 0 1094.16 0 0 0 1094.16)
(1306.12 0 0 0 1306.12 0 0 0 1306.12)
(1531.23 0 0 0 1531.23 0 0 0 1531.23)
(1736.92 0 0 0 1736.92 0 0 0 1736.92)
(1921.18 0 0 0 1921.18 0 0 0 1921.18)
(2087.9 0 0 0 2087.9 0 0 0 2087.9)
(2240.37 0 0 0 2240.37 0 0 0 2240.37)
(2381.08 0 0 0 2381.08 0 0 0 2381.08)
(2511.96 0 0 0 2511.96 0 0 0 2511.96)
(2634.48 0 0 0 2634.48 0 0 0 2634.48)
(2749.74 0 0 0 2749.74 0 0 0 2749.74)
(2858.62 0 0 0 2858.62 0 0 0 2858.62)
(2961.23 0 0 0 2961.23 0 0 0 2961.23)
(3057.76 0 0 0 3057.76 0 0 0 3057.76)
(3148.76 0 0 0 3148.76 0 0 0 3148.76)
(3234.79 0 0 0 3234.79 0 0 0 3234.79)
(3316.3 0 0 0 3316.3 0 0 0 3316.3)
(3393.66 0 0 0 3393.66 0 0 0 3393.66)
(3467.2 0 0 0 3467.2 0 0 0 3467.2)
(3537.16 0 0 0 3537.16 0 0 0 3537.16)
(3603.99 0 0 0 3603.99 0 0 0 3603.99)
(3682.86 0 0 0 3682.86 0 0 0 3682.86)
(3794.63 0 0 0 3794.63 0 0 0 3794.63)
(3901.61 0 0 0 3901.61 0 0 0 3901.61)
(4003.96 0 0 0 4003.96 0 0 0 4003.96)
(4102.13 0 0 0 4102.13 0 0 0 4102.13)
(4196.33 0 0 0 4196.33 0 0 0 4196.33)
(4286.77 0 0 0 4286.77 0 0 0 4286.77)
(4373.59 0 0 0 4373.59 0 0 0 4373.59)
(4456.94 0 0 0 4456.94 0 0 0 4456.94)
(4536.92 0 0 0 4536.92 0 0 0 4536.92)
(4613.67 0 0 0 4613.67 0 0 0 4613.67)
(4687.28 0 0 0 4687.28 0 0 0 4687.28)
(4757.83 0 0 0 4757.83 0 0 0 4757.83)
(4825.42 0 0 0 4825.42 0 0 0 4825.42)
(4890.13 0 0 0 4890.13 0 0 0 4890.13)
(4952.06 0 0 0 4952.06 0 0 0 4952.06)
(5011.29 0 0 0 5011.29 0 0 0 5011.29)
(5067.88 0 0 0 5067.88 0 0 0 5067.88)
(5121.91 0 0 0 5121.91 0 0 0 5121.91)
(5173.44 0 0 0 5173.44 0 0 0 5173.44)
(5222.55 0 0 0 5222.55 0 0 0 5222.55)
(5269.28 0 0 0 5269.28 0 0 0 5269.28)
(5313.71 0 0 0 5313.71 0 0 0 5313.71)
(5355.88 0 0 0 5355.88 0 0 0 5355.88)
(5395.84 0 0 0 5395.84 0 0 0 5395.84)
(5433.65 0 0 0 5433.65 0 0 0 5433.65)
(5469.34 0 0 0 5469.34 0 0 0 5469.34)
(5502.97 0 0 0 5502.97 0 0 0 5502.97)
(5534.58 0 0 0 5534.58 0 0 0 5534.58)
(5564.2 0 0 0 5564.2 0 0 0 5564.2)
(5591.87 0 0 0 5591.87 0 0 0 5591.87)
(5617.62 0 0 0 5617.62 0 0 0 5617.62)
(5641.5 0 0 0 5641.5 0 0 0 5641.5)
(5663.53 0 0 0 5663.53 0 0 0 5663.53)
(5683.73 0 0 0 5683.73 0 0 0 5683.73)
(5702.15 0 0 0 5702.15 0 0 0 5702.15)
(5718.8 0 0 0 5718.8 0 0 0 5718.8)
(5733.68 0 0 0 5733.68 0 0 0 5733.68)
(5746.95 0 0 0 5746.95 0 0 0 5746.95)
(5757.93 0 0 0 5757.93 0 0 0 5757.93)
(5769.79 0 0 0 5769.79 0 0 0 5769.79)
)
;

boundaryField
{
    inlet
    {
        type            zeroGradient;
    }
    outlet
    {
        type            zeroGradient;
    }
    fixedWalls
    {
        type            zeroGradient;
    }
}


// ************************************************************************* //
