/*--------------------------------*- C++ -*----------------------------------*\
| =========                 |                                                 |
| \\      /  F ield         | OpenFOAM: The Open Source CFD Toolbox           |
|  \\    /   O peration     | Version:  2406                                  |
|   \\  /    A nd           | Website:  www.openfoam.com                      |
|    \\/     M anipulation  |                                                 |
\*---------------------------------------------------------------------------*/
FoamFile
{
    version     2.0;
    format      ascii;
    arch        "LSB;label=32;scalar=64";
    class       volTensorField;
    location    "0.6/fluidRegion";
    object      Kd.liquid.structure;
}
// * * * * * * * * * * * * * * * * * * * * * * * * * * * * * * * * * * * * * //

dimensions      [1 -3 -1 0 0 0 0];

internalField   nonuniform List<tensor> 
75
(
(0 0 0 0 0 0 0 0 0)
(0 0 0 0 0 0 0 0 0)
(0 0 0 0 0 0 0 0 0)
(0 0 0 0 0 0 0 0 0)
(0 0 0 0 0 0 0 0 0)
(564.214 0 0 0 564.214 0 0 0 564.214)
(698.003 0 0 0 698.003 0 0 0 698.003)
(697.62 0 0 0 697.62 0 0 0 697.62)
(697.145 0 0 0 697.145 0 0 0 697.145)
(696.583 0 0 0 696.583 0 0 0 696.583)
(695.942 0 0 0 695.942 0 0 0 695.942)
(695.229 0 0 0 695.229 0 0 0 695.229)
(694.454 0 0 0 694.454 0 0 0 694.454)
(693.624 0 0 0 693.624 0 0 0 693.624)
(692.75 0 0 0 692.75 0 0 0 692.75)
(706.536 0 0 0 706.536 0 0 0 706.536)
(748.506 0 0 0 748.506 0 0 0 748.506)
(809.524 0 0 0 809.524 0 0 0 809.524)
(883.084 0 0 0 883.084 0 0 0 883.084)
(965.836 0 0 0 965.836 0 0 0 965.836)
(1053.3 0 0 0 1053.3 0 0 0 1053.3)
(1137.27 0 0 0 1137.27 0 0 0 1137.27)
(1218.13 0 0 0 1218.13 0 0 0 1218.13)
(1298 0 0 0 1298 0 0 0 1298)
(1378.19 0 0 0 1378.19 0 0 0 1378.19)
(1459.49 0 0 0 1459.49 0 0 0 1459.49)
(1542.35 0 0 0 1542.35 0 0 0 1542.35)
(1626.95 0 0 0 1626.95 0 0 0 1626.95)
(1713.17 0 0 0 1713.17 0 0 0 1713.17)
(1800.7 0 0 0 1800.7 0 0 0 1800.7)
(1889.13 0 0 0 1889.13 0 0 0 1889.13)
(1980.97 0 0 0 1980.97 0 0 0 1980.97)
(2073.41 0 0 0 2073.41 0 0 0 2073.41)
(2163.05 0 0 0 2163.05 0 0 0 2163.05)
(2248.61 0 0 0 2248.61 0 0 0 2248.61)
(2328.92 0 0 0 2328.92 0 0 0 2328.92)
(2403.62 0 0 0 2403.62 0 0 0 2403.62)
(2473.11 0 0 0 2473.11 0 0 0 2473.11)
(2537.89 0 0 0 2537.89 0 0 0 2537.89)
(2598.4 0 0 0 2598.4 0 0 0 2598.4)
(2655.01 0 0 0 2655.01 0 0 0 2655.01)
(2708.06 0 0 0 2708.06 0 0 0 2708.06)
(2757.83 0 0 0 2757.83 0 0 0 2757.83)
(2804.58 0 0 0 2804.58 0 0 0 2804.58)
(2848.54 0 0 0 2848.54 0 0 0 2848.54)
(2889.9 0 0 0 2889.9 0 0 0 2889.9)
(2928.84 0 0 0 2928.84 0 0 0 2928.84)
(2965.53 0 0 0 2965.53 0 0 0 2965.53)
(3000.12 0 0 0 3000.12 0 0 0 3000.12)
(3032.74 0 0 0 3032.74 0 0 0 3032.74)
(3063.51 0 0 0 3063.51 0 0 0 3063.51)
(3092.54 0 0 0 3092.54 0 0 0 3092.54)
(3119.94 0 0 0 3119.94 0 0 0 3119.94)
(3145.79 0 0 0 3145.79 0 0 0 3145.79)
(3170.17 0 0 0 3170.17 0 0 0 3170.17)
(3193.17 0 0 0 3193.17 0 0 0 3193.17)
(3214.86 0 0 0 3214.86 0 0 0 3214.86)
(3235.29 0 0 0 3235.29 0 0 0 3235.29)
(3254.53 0 0 0 3254.53 0 0 0 3254.53)
(3272.63 0 0 0 3272.63 0 0 0 3272.63)
(3289.65 0 0 0 3289.65 0 0 0 3289.65)
(3305.63 0 0 0 3305.63 0 0 0 3305.63)
(3320.6 0 0 0 3320.6 0 0 0 3320.6)
(3334.61 0 0 0 3334.61 0 0 0 3334.61)
(3347.69 0 0 0 3347.69 0 0 0 3347.69)
(3359.86 0 0 0 3359.86 0 0 0 3359.86)
(3371.13 0 0 0 3371.13 0 0 0 3371.13)
(3381.51 0 0 0 3381.51 0 0 0 3381.51)
(3390.98 0 0 0 3390.98 0 0 0 3390.98)
(3399.52 0 0 0 3399.52 0 0 0 3399.52)
(3407.12 0 0 0 3407.12 0 0 0 3407.12)
(3413.77 0 0 0 3413.77 0 0 0 3413.77)
(3419.57 0 0 0 3419.57 0 0 0 3419.57)
(3424.71 0 0 0 3424.71 0 0 0 3424.71)
(3429.63 0 0 0 3429.63 0 0 0 3429.63)
)
;

boundaryField
{
    inlet
    {
        type            zeroGradient;
    }
    outlet
    {
        type            zeroGradient;
    }
    fixedWalls
    {
        type            zeroGradient;
    }
}


// ************************************************************************* //
