/*--------------------------------*- C++ -*----------------------------------*\
| =========                 |                                                 |
| \\      /  F ield         | OpenFOAM: The Open Source CFD Toolbox           |
|  \\    /   O peration     | Version:  2406                                  |
|   \\  /    A nd           | Website:  www.openfoam.com                      |
|    \\/     M anipulation  |                                                 |
\*---------------------------------------------------------------------------*/
FoamFile
{
    version     2.0;
    format      ascii;
    arch        "LSB;label=32;scalar=64";
    class       volScalarField;
    location    "30/fluidRegion";
    object      alphaRhoMagU.vapour;
}
// * * * * * * * * * * * * * * * * * * * * * * * * * * * * * * * * * * * * * //

dimensions      [1 -2 -1 0 0 0 0];

internalField   nonuniform List<scalar> 
75
(
0
0
0
0
0
0
0
0
0
0
0
0
0
0
0
0
0
0
0.0748818
0.231931
0.455805
0.743919
1.09552
1.51352
2.0021
2.56569
3.20679
3.92158
4.68744
5.49835
6.35585
7.27475
8.27008
9.2903
10.3
11.2858
12.2341
13.1397
14.0033
14.8264
15.6108
16.3579
17.0695
17.747
18.3919
19.0054
19.5889
20.1438
20.6712
21.1723
21.6482
22.0998
22.5281
22.9339
23.3183
23.6818
24.0254
24.3496
24.6552
24.9428
25.2129
25.4662
25.703
25.924
26.1295
26.32
26.496
26.6577
26.8057
26.9403
27.0619
27.1709
27.2677
27.3527
27.4264
)
;

boundaryField
{
    inlet
    {
        type            calculated;
        value           uniform 0;
    }
    outlet
    {
        type            calculated;
        value           uniform 27.426;
    }
    fixedWalls
    {
        type            calculated;
        value           nonuniform List<scalar> 
300
(
0
0
0
0
0
0
0
0
0
0
0
0
0
0
0
0
0
0
0.0748818
0.231931
0.455805
0.743919
1.09552
1.51352
2.0021
2.56569
3.20679
3.92158
4.68744
5.49835
6.35585
7.27475
8.27008
9.2903
10.3
11.2858
12.2341
13.1397
14.0033
14.8264
15.6108
16.3579
17.0695
17.747
18.3919
19.0054
19.5889
20.1438
20.6712
21.1723
21.6482
22.0998
22.5281
22.9339
23.3183
23.6818
24.0254
24.3496
24.6552
24.9428
25.2129
25.4662
25.703
25.924
26.1295
26.32
26.496
26.6577
26.8057
26.9403
27.0619
27.1709
27.2677
27.3527
27.4264
0
0
0
0
0
0
0
0
0
0
0
0
0
0
0
0
0
0
0.0748818
0.231931
0.455805
0.743919
1.09552
1.51352
2.0021
2.56569
3.20679
3.92158
4.68744
5.49835
6.35585
7.27475
8.27008
9.2903
10.3
11.2858
12.2341
13.1397
14.0033
14.8264
15.6108
16.3579
17.0695
17.747
18.3919
19.0054
19.5889
20.1438
20.6712
21.1723
21.6482
22.0998
22.5281
22.9339
23.3183
23.6818
24.0254
24.3496
24.6552
24.9428
25.2129
25.4662
25.703
25.924
26.1295
26.32
26.496
26.6577
26.8057
26.9403
27.0619
27.1709
27.2677
27.3527
27.4264
0
0
0
0
0
0
0
0
0
0
0
0
0
0
0
0
0
0
0.0748818
0.231931
0.455805
0.743919
1.09552
1.51352
2.0021
2.56569
3.20679
3.92158
4.68744
5.49835
6.35585
7.27475
8.27008
9.2903
10.3
11.2858
12.2341
13.1397
14.0033
14.8264
15.6108
16.3579
17.0695
17.747
18.3919
19.0054
19.5889
20.1438
20.6712
21.1723
21.6482
22.0998
22.5281
22.9339
23.3183
23.6818
24.0254
24.3496
24.6552
24.9428
25.2129
25.4662
25.703
25.924
26.1295
26.32
26.496
26.6577
26.8057
26.9403
27.0619
27.1709
27.2677
27.3527
27.4264
0
0
0
0
0
0
0
0
0
0
0
0
0
0
0
0
0
0
0.0748818
0.231931
0.455805
0.743919
1.09552
1.51352
2.0021
2.56569
3.20679
3.92158
4.68744
5.49835
6.35585
7.27475
8.27008
9.2903
10.3
11.2858
12.2341
13.1397
14.0033
14.8264
15.6108
16.3579
17.0695
17.747
18.3919
19.0054
19.5889
20.1438
20.6712
21.1723
21.6482
22.0998
22.5281
22.9339
23.3183
23.6818
24.0254
24.3496
24.6552
24.9428
25.2129
25.4662
25.703
25.924
26.1295
26.32
26.496
26.6577
26.8057
26.9403
27.0619
27.1709
27.2677
27.3527
27.4264
)
;
    }
}


// ************************************************************************* //
