/*--------------------------------*- C++ -*----------------------------------*\
| =========                 |                                                 |
| \\      /  F ield         | OpenFOAM: The Open Source CFD Toolbox           |
|  \\    /   O peration     | Version:  2406                                  |
|   \\  /    A nd           | Website:  www.openfoam.com                      |
|    \\/     M anipulation  |                                                 |
\*---------------------------------------------------------------------------*/
FoamFile
{
    version     2.0;
    format      ascii;
    arch        "LSB;label=32;scalar=64";
    class       volScalarField;
    location    "30/fluidRegion";
    object      dgdt.vapour;
}
// * * * * * * * * * * * * * * * * * * * * * * * * * * * * * * * * * * * * * //

dimensions      [0 0 -1 0 0 0 0];

internalField   nonuniform List<scalar> 
75
(
-3.41412e-253
-1.24408e-253
-1.47721e-252
-1.7245e-254
-1.06059e-253
-1.4829e-253
-1.40148e-253
-1.76848e-253
-3.68968e-254
-1.30691e-253
-3.37787e-253
-3.19936e-254
-4.92875e-254
-1.60919e-253
-4.81888e-254
-2.85799e-254
-5.16846e-254
-3.19364e-253
0.132264
0.258713
0.369754
0.473968
0.579078
0.689328
0.807032
0.932181
1.06121
1.18341
1.25829
1.33316
1.4101
1.51675
1.6528
1.66505
1.63912
1.59829
1.53027
1.45971
1.39122
1.32527
1.26201
1.20148
1.14362
1.0884
1.03527
0.984554
0.936107
0.889781
0.845444
0.802975
0.762261
0.723198
0.685681
0.649633
0.614958
0.581572
0.549398
0.51836
0.488389
0.45942
0.431392
0.404246
0.377933
0.352401
0.327609
0.303519
0.280103
0.257336
0.235205
0.213706
0.192844
0.172628
0.153072
0.134186
0.1167
)
;

boundaryField
{
    inlet
    {
        type            calculated;
        value           uniform -3.41412e-253;
    }
    outlet
    {
        type            calculated;
        value           uniform 0.1167;
    }
    fixedWalls
    {
        type            calculated;
        value           nonuniform List<scalar> 
300
(
-3.41412e-253
-1.24408e-253
-1.47721e-252
-1.7245e-254
-1.06059e-253
-1.4829e-253
-1.40148e-253
-1.76848e-253
-3.68968e-254
-1.30691e-253
-3.37787e-253
-3.19936e-254
-4.92875e-254
-1.60919e-253
-4.81888e-254
-2.85799e-254
-5.16846e-254
-3.19364e-253
0.132264
0.258713
0.369754
0.473968
0.579078
0.689328
0.807032
0.932181
1.06121
1.18341
1.25829
1.33316
1.4101
1.51675
1.6528
1.66505
1.63912
1.59829
1.53027
1.45971
1.39122
1.32527
1.26201
1.20148
1.14362
1.0884
1.03527
0.984554
0.936107
0.889781
0.845444
0.802975
0.762261
0.723198
0.685681
0.649633
0.614958
0.581572
0.549398
0.51836
0.488389
0.45942
0.431392
0.404246
0.377933
0.352401
0.327609
0.303519
0.280103
0.257336
0.235205
0.213706
0.192844
0.172628
0.153072
0.134186
0.1167
-3.41412e-253
-1.24408e-253
-1.47721e-252
-1.7245e-254
-1.06059e-253
-1.4829e-253
-1.40148e-253
-1.76848e-253
-3.68968e-254
-1.30691e-253
-3.37787e-253
-3.19936e-254
-4.92875e-254
-1.60919e-253
-4.81888e-254
-2.85799e-254
-5.16846e-254
-3.19364e-253
0.132264
0.258713
0.369754
0.473968
0.579078
0.689328
0.807032
0.932181
1.06121
1.18341
1.25829
1.33316
1.4101
1.51675
1.6528
1.66505
1.63912
1.59829
1.53027
1.45971
1.39122
1.32527
1.26201
1.20148
1.14362
1.0884
1.03527
0.984554
0.936107
0.889781
0.845444
0.802975
0.762261
0.723198
0.685681
0.649633
0.614958
0.581572
0.549398
0.51836
0.488389
0.45942
0.431392
0.404246
0.377933
0.352401
0.327609
0.303519
0.280103
0.257336
0.235205
0.213706
0.192844
0.172628
0.153072
0.134186
0.1167
-3.41412e-253
-1.24408e-253
-1.47721e-252
-1.7245e-254
-1.06059e-253
-1.4829e-253
-1.40148e-253
-1.76848e-253
-3.68968e-254
-1.30691e-253
-3.37787e-253
-3.19936e-254
-4.92875e-254
-1.60919e-253
-4.81888e-254
-2.85799e-254
-5.16846e-254
-3.19364e-253
0.132264
0.258713
0.369754
0.473968
0.579078
0.689328
0.807032
0.932181
1.06121
1.18341
1.25829
1.33316
1.4101
1.51675
1.6528
1.66505
1.63912
1.59829
1.53027
1.45971
1.39122
1.32527
1.26201
1.20148
1.14362
1.0884
1.03527
0.984554
0.936107
0.889781
0.845444
0.802975
0.762261
0.723198
0.685681
0.649633
0.614958
0.581572
0.549398
0.51836
0.488389
0.45942
0.431392
0.404246
0.377933
0.352401
0.327609
0.303519
0.280103
0.257336
0.235205
0.213706
0.192844
0.172628
0.153072
0.134186
0.1167
-3.41412e-253
-1.24408e-253
-1.47721e-252
-1.7245e-254
-1.06059e-253
-1.4829e-253
-1.40148e-253
-1.76848e-253
-3.68968e-254
-1.30691e-253
-3.37787e-253
-3.19936e-254
-4.92875e-254
-1.60919e-253
-4.81888e-254
-2.85799e-254
-5.16846e-254
-3.19364e-253
0.132264
0.258713
0.369754
0.473968
0.579078
0.689328
0.807032
0.932181
1.06121
1.18341
1.25829
1.33316
1.4101
1.51675
1.6528
1.66505
1.63912
1.59829
1.53027
1.45971
1.39122
1.32527
1.26201
1.20148
1.14362
1.0884
1.03527
0.984554
0.936107
0.889781
0.845444
0.802975
0.762261
0.723198
0.685681
0.649633
0.614958
0.581572
0.549398
0.51836
0.488389
0.45942
0.431392
0.404246
0.377933
0.352401
0.327609
0.303519
0.280103
0.257336
0.235205
0.213706
0.192844
0.172628
0.153072
0.134186
0.1167
)
;
    }
}


// ************************************************************************* //
