/*--------------------------------*- C++ -*----------------------------------*\
| =========                 |                                                 |
| \\      /  F ield         | OpenFOAM: The Open Source CFD Toolbox           |
|  \\    /   O peration     | Version:  2406                                  |
|   \\  /    A nd           | Website:  www.openfoam.com                      |
|    \\/     M anipulation  |                                                 |
\*---------------------------------------------------------------------------*/
FoamFile
{
    version     2.0;
    format      ascii;
    arch        "LSB;label=32;scalar=64";
    class       volTensorField;
    location    "30/fluidRegion";
    object      Kd.liquid.structure;
}
// * * * * * * * * * * * * * * * * * * * * * * * * * * * * * * * * * * * * * //

dimensions      [1 -3 -1 0 0 0 0];

internalField   nonuniform List<tensor> 
75
(
(418.492 0 0 0 418.492 0 0 0 418.492)
(418.492 0 0 0 418.492 0 0 0 418.492)
(418.492 0 0 0 418.492 0 0 0 418.492)
(418.492 0 0 0 418.492 0 0 0 418.492)
(418.492 0 0 0 418.492 0 0 0 418.492)
(418.415 0 0 0 418.415 0 0 0 418.415)
(418.289 0 0 0 418.289 0 0 0 418.289)
(418.118 0 0 0 418.118 0 0 0 418.118)
(417.903 0 0 0 417.903 0 0 0 417.903)
(417.648 0 0 0 417.648 0 0 0 417.648)
(417.354 0 0 0 417.354 0 0 0 417.354)
(417.023 0 0 0 417.023 0 0 0 417.023)
(416.659 0 0 0 416.659 0 0 0 416.659)
(416.264 0 0 0 416.264 0 0 0 416.264)
(415.841 0 0 0 415.841 0 0 0 415.841)
(415.394 0 0 0 415.394 0 0 0 415.394)
(414.926 0 0 0 414.926 0 0 0 414.926)
(414.439 0 0 0 414.439 0 0 0 414.439)
(428.65 0 0 0 428.65 0 0 0 428.65)
(454.443 0 0 0 454.443 0 0 0 454.443)
(488.016 0 0 0 488.016 0 0 0 488.016)
(528.24 0 0 0 528.24 0 0 0 528.24)
(574.326 0 0 0 574.326 0 0 0 574.326)
(626.015 0 0 0 626.015 0 0 0 626.015)
(683.177 0 0 0 683.177 0 0 0 683.177)
(745.666 0 0 0 745.666 0 0 0 745.666)
(813.12 0 0 0 813.12 0 0 0 813.12)
(884.607 0 0 0 884.607 0 0 0 884.607)
(957.563 0 0 0 957.563 0 0 0 957.563)
(1031.14 0 0 0 1031.14 0 0 0 1031.14)
(1105.4 0 0 0 1105.4 0 0 0 1105.4)
(1181.45 0 0 0 1181.45 0 0 0 1181.45)
(1260.47 0 0 0 1260.47 0 0 0 1260.47)
(1338.52 0 0 0 1338.52 0 0 0 1338.52)
(1412.8 0 0 0 1412.8 0 0 0 1412.8)
(1482.74 0 0 0 1482.74 0 0 0 1482.74)
(1547.89 0 0 0 1547.89 0 0 0 1547.89)
(1608.29 0 0 0 1608.29 0 0 0 1608.29)
(1664.37 0 0 0 1664.37 0 0 0 1664.37)
(1716.59 0 0 0 1716.59 0 0 0 1716.59)
(1765.32 0 0 0 1765.32 0 0 0 1765.32)
(1810.87 0 0 0 1810.87 0 0 0 1810.87)
(1853.52 0 0 0 1853.52 0 0 0 1853.52)
(1893.52 0 0 0 1893.52 0 0 0 1893.52)
(1931.06 0 0 0 1931.06 0 0 0 1931.06)
(1966.33 0 0 0 1966.33 0 0 0 1966.33)
(1999.49 0 0 0 1999.49 0 0 0 1999.49)
(2030.69 0 0 0 2030.69 0 0 0 2030.69)
(2060.05 0 0 0 2060.05 0 0 0 2060.05)
(2087.71 0 0 0 2087.71 0 0 0 2087.71)
(2113.76 0 0 0 2113.76 0 0 0 2113.76)
(2138.3 0 0 0 2138.3 0 0 0 2138.3)
(2161.42 0 0 0 2161.42 0 0 0 2161.42)
(2183.18 0 0 0 2183.18 0 0 0 2183.18)
(2203.68 0 0 0 2203.68 0 0 0 2203.68)
(2222.97 0 0 0 2222.97 0 0 0 2222.97)
(2241.11 0 0 0 2241.11 0 0 0 2241.11)
(2258.16 0 0 0 2258.16 0 0 0 2258.16)
(2274.16 0 0 0 2274.16 0 0 0 2274.16)
(2289.17 0 0 0 2289.17 0 0 0 2289.17)
(2303.23 0 0 0 2303.23 0 0 0 2303.23)
(2316.38 0 0 0 2316.38 0 0 0 2316.38)
(2328.65 0 0 0 2328.65 0 0 0 2328.65)
(2340.07 0 0 0 2340.07 0 0 0 2340.07)
(2350.69 0 0 0 2350.69 0 0 0 2350.69)
(2360.52 0 0 0 2360.52 0 0 0 2360.52)
(2369.6 0 0 0 2369.6 0 0 0 2369.6)
(2377.94 0 0 0 2377.94 0 0 0 2377.94)
(2385.59 0 0 0 2385.59 0 0 0 2385.59)
(2392.55 0 0 0 2392.55 0 0 0 2392.55)
(2398.85 0 0 0 2398.85 0 0 0 2398.85)
(2404.52 0 0 0 2404.52 0 0 0 2404.52)
(2409.58 0 0 0 2409.58 0 0 0 2409.58)
(2414.05 0 0 0 2414.05 0 0 0 2414.05)
(2417.98 0 0 0 2417.98 0 0 0 2417.98)
)
;

boundaryField
{
    inlet
    {
        type            zeroGradient;
    }
    outlet
    {
        type            zeroGradient;
    }
    fixedWalls
    {
        type            zeroGradient;
    }
}


// ************************************************************************* //
