/*--------------------------------*- C++ -*----------------------------------*\
| =========                 |                                                 |
| \\      /  F ield         | OpenFOAM: The Open Source CFD Toolbox           |
|  \\    /   O peration     | Version:  2406                                  |
|   \\  /    A nd           | Website:  www.openfoam.com                      |
|    \\/     M anipulation  |                                                 |
\*---------------------------------------------------------------------------*/
FoamFile
{
    version     2.0;
    format      ascii;
    arch        "LSB;label=32;scalar=64";
    class       volScalarField;
    location    "30/fluidRegion";
    object      T.vapour;
}
// * * * * * * * * * * * * * * * * * * * * * * * * * * * * * * * * * * * * * //

dimensions      [0 0 0 1 0 0 0];

internalField   nonuniform List<scalar> 
75
(
561.014
561.013
561.013
561.013
561.013
561.012
561.012
561.012
561.012
561.012
561.011
561.011
561.011
561.011
561.01
561.01
561.01
561.01
561.009
561.009
561.009
561.009
561.008
561.008
561.008
561.007
561.007
561.006
561.006
561.005
561.004
561.004
561.003
561.002
561.002
561.001
561
561
560.999
560.998
560.998
560.997
560.996
560.996
560.995
560.994
560.994
560.993
560.992
560.992
560.991
560.99
560.99
560.989
560.988
560.987
560.987
560.986
560.985
560.985
560.984
560.983
560.982
560.982
560.981
560.98
560.98
560.979
560.978
560.978
560.977
560.976
560.976
560.975
560.974
)
;

boundaryField
{
    inlet
    {
        type            fixedValue;
        value           uniform 543.15;
    }
    outlet
    {
        type            zeroGradient;
    }
    fixedWalls
    {
        type            zeroGradient;
    }
}


// ************************************************************************* //
