/*--------------------------------*- C++ -*----------------------------------*\
| =========                 |                                                 |
| \\      /  F ield         | OpenFOAM: The Open Source CFD Toolbox           |
|  \\    /   O peration     | Version:  2406                                  |
|   \\  /    A nd           | Website:  www.openfoam.com                      |
|    \\/     M anipulation  |                                                 |
\*---------------------------------------------------------------------------*/
FoamFile
{
    version     2.0;
    format      ascii;
    arch        "LSB;label=32;scalar=64";
    class       volScalarField;
    location    "0.6/fluidRegion";
    object      alphaRhoMagU.vapour;
}
// * * * * * * * * * * * * * * * * * * * * * * * * * * * * * * * * * * * * * //

dimensions      [1 -2 -1 0 0 0 0];

internalField   nonuniform List<scalar> 
75
(
0
0
0
0
0
0
0
0
0
0
0
0
0
0
0
0.0816075
0.378456
0.856911
1.48188
2.23438
3.0783
3.9314
4.79552
5.68742
6.61942
7.60038
8.6369
9.7324
10.8874
12.0992
13.3647
14.7226
16.1273
17.5312
18.9113
20.2421
21.5124
22.7223
23.8743
24.9709
26.0147
27.0081
27.9534
28.8531
29.709
30.5232
31.2975
32.0339
32.7341
33.3996
34.0321
34.6329
35.2033
35.7447
36.2581
36.7448
37.2058
37.642
38.0543
38.4436
38.8107
39.1564
39.4812
39.7857
40.0704
40.3356
40.5814
40.8077
41.0138
41.1991
41.363
41.5059
41.6295
41.7392
41.8416
)
;

boundaryField
{
    inlet
    {
        type            calculated;
        value           uniform 0;
    }
    outlet
    {
        type            calculated;
        value           uniform 41.8399;
    }
    fixedWalls
    {
        type            calculated;
        value           nonuniform List<scalar> 
300
(
0
0
0
0
0
0
0
0
0
0
0
0
0
0
0
0.0816075
0.378456
0.856911
1.48188
2.23438
3.0783
3.9314
4.79552
5.68742
6.61942
7.60038
8.6369
9.7324
10.8874
12.0992
13.3647
14.7226
16.1273
17.5312
18.9113
20.2421
21.5124
22.7223
23.8743
24.9709
26.0147
27.0081
27.9534
28.8531
29.709
30.5232
31.2975
32.0339
32.7341
33.3996
34.0321
34.6329
35.2033
35.7447
36.2581
36.7448
37.2058
37.642
38.0543
38.4436
38.8107
39.1564
39.4812
39.7857
40.0704
40.3356
40.5814
40.8077
41.0138
41.1991
41.363
41.5059
41.6295
41.7392
41.8416
0
0
0
0
0
0
0
0
0
0
0
0
0
0
0
0.0816075
0.378456
0.856911
1.48188
2.23438
3.0783
3.9314
4.79552
5.68742
6.61942
7.60038
8.6369
9.7324
10.8874
12.0992
13.3647
14.7226
16.1273
17.5312
18.9113
20.2421
21.5124
22.7223
23.8743
24.9709
26.0147
27.0081
27.9534
28.8531
29.709
30.5232
31.2975
32.0339
32.7341
33.3996
34.0321
34.6329
35.2033
35.7447
36.2581
36.7448
37.2058
37.642
38.0543
38.4436
38.8107
39.1564
39.4812
39.7857
40.0704
40.3356
40.5814
40.8077
41.0138
41.1991
41.363
41.5059
41.6295
41.7392
41.8416
0
0
0
0
0
0
0
0
0
0
0
0
0
0
0
0.0816075
0.378456
0.856911
1.48188
2.23438
3.0783
3.9314
4.79552
5.68742
6.61942
7.60038
8.6369
9.7324
10.8874
12.0992
13.3647
14.7226
16.1273
17.5312
18.9113
20.2421
21.5124
22.7223
23.8743
24.9709
26.0147
27.0081
27.9534
28.8531
29.709
30.5232
31.2975
32.0339
32.7341
33.3996
34.0321
34.6329
35.2033
35.7447
36.2581
36.7448
37.2058
37.642
38.0543
38.4436
38.8107
39.1564
39.4812
39.7857
40.0704
40.3356
40.5814
40.8077
41.0138
41.1991
41.363
41.5059
41.6295
41.7392
41.8416
0
0
0
0
0
0
0
0
0
0
0
0
0
0
0
0.0816075
0.378456
0.856911
1.48188
2.23438
3.0783
3.9314
4.79552
5.68742
6.61942
7.60038
8.6369
9.7324
10.8874
12.0992
13.3647
14.7226
16.1273
17.5312
18.9113
20.2421
21.5124
22.7223
23.8743
24.9709
26.0147
27.0081
27.9534
28.8531
29.709
30.5232
31.2975
32.0339
32.7341
33.3996
34.0321
34.6329
35.2033
35.7447
36.2581
36.7448
37.2058
37.642
38.0543
38.4436
38.8107
39.1564
39.4812
39.7857
40.0704
40.3356
40.5814
40.8077
41.0138
41.1991
41.363
41.5059
41.6295
41.7392
41.8416
)
;
    }
}


// ************************************************************************* //
