/*--------------------------------*- C++ -*----------------------------------*\
| =========                 |                                                 |
| \\      /  F ield         | OpenFOAM: The Open Source CFD Toolbox           |
|  \\    /   O peration     | Version:  2406                                  |
|   \\  /    A nd           | Website:  www.openfoam.com                      |
|    \\/     M anipulation  |                                                 |
\*---------------------------------------------------------------------------*/
FoamFile
{
    version     2.0;
    format      ascii;
    arch        "LSB;label=32;scalar=64";
    class       volScalarField;
    location    "0.6/fluidRegion";
    object      dgdt.vapour;
}
// * * * * * * * * * * * * * * * * * * * * * * * * * * * * * * * * * * * * * //

dimensions      [0 0 -1 0 0 0 0];

internalField   nonuniform List<scalar> 
75
(
-0
-0
-0
-0
-0
-3.33894e-21
-2.72698e-20
-7.75792e-20
-2.73133e-19
-9.56741e-19
-2.33445e-18
-4.60442e-18
-8.2609e-18
-3.30064e-18
-2.75528e-16
0.139939
0.500836
0.788562
1.03116
1.23453
1.38515
1.37468
1.40007
1.45133
1.51958
1.60183
1.69417
1.79126
1.88851
1.98053
2.06302
2.23942
2.28729
2.27196
2.2298
2.13906
2.03923
1.94222
1.84886
1.75948
1.67417
1.59287
1.51547
1.44183
1.37124
1.30402
1.24001
1.17898
1.12074
1.06511
1.01192
0.961025
0.912278
0.865546
0.820706
0.777644
0.736249
0.696421
0.658063
0.621082
0.585381
0.550866
0.51741
0.48489
0.453097
0.421862
0.390757
0.359416
0.327075
0.293686
0.25957
0.226159
0.196342
0.175641
0.172554
)
;

boundaryField
{
    inlet
    {
        type            calculated;
        value           uniform -0;
    }
    outlet
    {
        type            calculated;
        value           uniform 0.172554;
    }
    fixedWalls
    {
        type            calculated;
        value           nonuniform List<scalar> 
300
(
-0
-0
-0
-0
-0
-3.33894e-21
-2.72698e-20
-7.75792e-20
-2.73133e-19
-9.56741e-19
-2.33445e-18
-4.60442e-18
-8.2609e-18
-3.30064e-18
-2.75528e-16
0.139939
0.500836
0.788562
1.03116
1.23453
1.38515
1.37468
1.40007
1.45133
1.51958
1.60183
1.69417
1.79126
1.88851
1.98053
2.06302
2.23942
2.28729
2.27196
2.2298
2.13906
2.03923
1.94222
1.84886
1.75948
1.67417
1.59287
1.51547
1.44183
1.37124
1.30402
1.24001
1.17898
1.12074
1.06511
1.01192
0.961025
0.912278
0.865546
0.820706
0.777644
0.736249
0.696421
0.658063
0.621082
0.585381
0.550866
0.51741
0.48489
0.453097
0.421862
0.390757
0.359416
0.327075
0.293686
0.25957
0.226159
0.196342
0.175641
0.172554
-0
-0
-0
-0
-0
-3.33894e-21
-2.72698e-20
-7.75792e-20
-2.73133e-19
-9.56741e-19
-2.33445e-18
-4.60442e-18
-8.2609e-18
-3.30064e-18
-2.75528e-16
0.139939
0.500836
0.788562
1.03116
1.23453
1.38515
1.37468
1.40007
1.45133
1.51958
1.60183
1.69417
1.79126
1.88851
1.98053
2.06302
2.23942
2.28729
2.27196
2.2298
2.13906
2.03923
1.94222
1.84886
1.75948
1.67417
1.59287
1.51547
1.44183
1.37124
1.30402
1.24001
1.17898
1.12074
1.06511
1.01192
0.961025
0.912278
0.865546
0.820706
0.777644
0.736249
0.696421
0.658063
0.621082
0.585381
0.550866
0.51741
0.48489
0.453097
0.421862
0.390757
0.359416
0.327075
0.293686
0.25957
0.226159
0.196342
0.175641
0.172554
-0
-0
-0
-0
-0
-3.33894e-21
-2.72698e-20
-7.75792e-20
-2.73133e-19
-9.56741e-19
-2.33445e-18
-4.60442e-18
-8.2609e-18
-3.30064e-18
-2.75528e-16
0.139939
0.500836
0.788562
1.03116
1.23453
1.38515
1.37468
1.40007
1.45133
1.51958
1.60183
1.69417
1.79126
1.88851
1.98053
2.06302
2.23942
2.28729
2.27196
2.2298
2.13906
2.03923
1.94222
1.84886
1.75948
1.67417
1.59287
1.51547
1.44183
1.37124
1.30402
1.24001
1.17898
1.12074
1.06511
1.01192
0.961025
0.912278
0.865546
0.820706
0.777644
0.736249
0.696421
0.658063
0.621082
0.585381
0.550866
0.51741
0.48489
0.453097
0.421862
0.390757
0.359416
0.327075
0.293686
0.25957
0.226159
0.196342
0.175641
0.172554
-0
-0
-0
-0
-0
-3.33894e-21
-2.72698e-20
-7.75792e-20
-2.73133e-19
-9.56741e-19
-2.33445e-18
-4.60442e-18
-8.2609e-18
-3.30064e-18
-2.75528e-16
0.139939
0.500836
0.788562
1.03116
1.23453
1.38515
1.37468
1.40007
1.45133
1.51958
1.60183
1.69417
1.79126
1.88851
1.98053
2.06302
2.23942
2.28729
2.27196
2.2298
2.13906
2.03923
1.94222
1.84886
1.75948
1.67417
1.59287
1.51547
1.44183
1.37124
1.30402
1.24001
1.17898
1.12074
1.06511
1.01192
0.961025
0.912278
0.865546
0.820706
0.777644
0.736249
0.696421
0.658063
0.621082
0.585381
0.550866
0.51741
0.48489
0.453097
0.421862
0.390757
0.359416
0.327075
0.293686
0.25957
0.226159
0.196342
0.175641
0.172554
)
;
    }
}


// ************************************************************************* //
