/*--------------------------------*- C++ -*----------------------------------*\
| =========                 |                                                 |
| \\      /  F ield         | OpenFOAM: The Open Source CFD Toolbox           |
|  \\    /   O peration     | Version:  2406                                  |
|   \\  /    A nd           | Website:  www.openfoam.com                      |
|    \\/     M anipulation  |                                                 |
\*---------------------------------------------------------------------------*/
FoamFile
{
    version     2.0;
    format      ascii;
    arch        "LSB;label=32;scalar=64";
    class       volTensorField;
    location    "0.6/fluidRegion";
    object      Kd.liquid.structure;
}
// * * * * * * * * * * * * * * * * * * * * * * * * * * * * * * * * * * * * * //

dimensions      [1 -3 -1 0 0 0 0];

internalField   nonuniform List<tensor> 
75
(
(0 0 0 0 0 0 0 0 0)
(0 0 0 0 0 0 0 0 0)
(0 0 0 0 0 0 0 0 0)
(0 0 0 0 0 0 0 0 0)
(0 0 0 0 0 0 0 0 0)
(564.214 0 0 0 564.214 0 0 0 564.214)
(698.004 0 0 0 698.004 0 0 0 698.004)
(697.621 0 0 0 697.621 0 0 0 697.621)
(697.146 0 0 0 697.146 0 0 0 697.146)
(696.585 0 0 0 696.585 0 0 0 696.585)
(695.944 0 0 0 695.944 0 0 0 695.944)
(695.232 0 0 0 695.232 0 0 0 695.232)
(694.458 0 0 0 694.458 0 0 0 694.458)
(693.629 0 0 0 693.629 0 0 0 693.629)
(692.755 0 0 0 692.755 0 0 0 692.755)
(706.284 0 0 0 706.284 0 0 0 706.284)
(748.106 0 0 0 748.106 0 0 0 748.106)
(809.057 0 0 0 809.057 0 0 0 809.057)
(882.572 0 0 0 882.572 0 0 0 882.572)
(965.327 0 0 0 965.327 0 0 0 965.327)
(1052.84 0 0 0 1052.84 0 0 0 1052.84)
(1136.95 0 0 0 1136.95 0 0 0 1136.95)
(1217.96 0 0 0 1217.96 0 0 0 1217.96)
(1297.93 0 0 0 1297.93 0 0 0 1297.93)
(1378.21 0 0 0 1378.21 0 0 0 1378.21)
(1459.56 0 0 0 1459.56 0 0 0 1459.56)
(1542.47 0 0 0 1542.47 0 0 0 1542.47)
(1627.1 0 0 0 1627.1 0 0 0 1627.1)
(1713.35 0 0 0 1713.35 0 0 0 1713.35)
(1800.9 0 0 0 1800.9 0 0 0 1800.9)
(1889.35 0 0 0 1889.35 0 0 0 1889.35)
(1981.21 0 0 0 1981.21 0 0 0 1981.21)
(2073.68 0 0 0 2073.68 0 0 0 2073.68)
(2163.33 0 0 0 2163.33 0 0 0 2163.33)
(2248.9 0 0 0 2248.9 0 0 0 2248.9)
(2329.22 0 0 0 2329.22 0 0 0 2329.22)
(2403.93 0 0 0 2403.93 0 0 0 2403.93)
(2473.43 0 0 0 2473.43 0 0 0 2473.43)
(2538.21 0 0 0 2538.21 0 0 0 2538.21)
(2598.72 0 0 0 2598.72 0 0 0 2598.72)
(2655.33 0 0 0 2655.33 0 0 0 2655.33)
(2708.37 0 0 0 2708.37 0 0 0 2708.37)
(2758.14 0 0 0 2758.14 0 0 0 2758.14)
(2804.88 0 0 0 2804.88 0 0 0 2804.88)
(2848.83 0 0 0 2848.83 0 0 0 2848.83)
(2890.18 0 0 0 2890.18 0 0 0 2890.18)
(2929.12 0 0 0 2929.12 0 0 0 2929.12)
(2965.8 0 0 0 2965.8 0 0 0 2965.8)
(3000.38 0 0 0 3000.38 0 0 0 3000.38)
(3032.99 0 0 0 3032.99 0 0 0 3032.99)
(3063.75 0 0 0 3063.75 0 0 0 3063.75)
(3092.78 0 0 0 3092.78 0 0 0 3092.78)
(3120.16 0 0 0 3120.16 0 0 0 3120.16)
(3146 0 0 0 3146 0 0 0 3146)
(3170.38 0 0 0 3170.38 0 0 0 3170.38)
(3193.37 0 0 0 3193.37 0 0 0 3193.37)
(3215.05 0 0 0 3215.05 0 0 0 3215.05)
(3235.47 0 0 0 3235.47 0 0 0 3235.47)
(3254.7 0 0 0 3254.7 0 0 0 3254.7)
(3272.8 0 0 0 3272.8 0 0 0 3272.8)
(3289.81 0 0 0 3289.81 0 0 0 3289.81)
(3305.77 0 0 0 3305.77 0 0 0 3305.77)
(3320.74 0 0 0 3320.74 0 0 0 3320.74)
(3334.74 0 0 0 3334.74 0 0 0 3334.74)
(3347.81 0 0 0 3347.81 0 0 0 3347.81)
(3359.97 0 0 0 3359.97 0 0 0 3359.97)
(3371.23 0 0 0 3371.23 0 0 0 3371.23)
(3381.6 0 0 0 3381.6 0 0 0 3381.6)
(3391.07 0 0 0 3391.07 0 0 0 3391.07)
(3399.6 0 0 0 3399.6 0 0 0 3399.6)
(3407.18 0 0 0 3407.18 0 0 0 3407.18)
(3413.82 0 0 0 3413.82 0 0 0 3413.82)
(3419.61 0 0 0 3419.61 0 0 0 3419.61)
(3424.74 0 0 0 3424.74 0 0 0 3424.74)
(3429.66 0 0 0 3429.66 0 0 0 3429.66)
)
;

boundaryField
{
    inlet
    {
        type            zeroGradient;
    }
    outlet
    {
        type            zeroGradient;
    }
    fixedWalls
    {
        type            zeroGradient;
    }
}


// ************************************************************************* //
