/*--------------------------------*- C++ -*----------------------------------*\
| =========                 |                                                 |
| \\      /  F ield         | OpenFOAM: The Open Source CFD Toolbox           |
|  \\    /   O peration     | Version:  2406                                  |
|   \\  /    A nd           | Website:  www.openfoam.com                      |
|    \\/     M anipulation  |                                                 |
\*---------------------------------------------------------------------------*/
FoamFile
{
    version     2.0;
    format      ascii;
    arch        "LSB;label=32;scalar=64";
    class       surfaceScalarField;
    location    "0.6/fluidRegion";
    object      alphaRhoPhi.vapour;
}
// * * * * * * * * * * * * * * * * * * * * * * * * * * * * * * * * * * * * * //

dimensions      [1 0 -1 0 0 0 0];

oriented        oriented;

internalField   nonuniform List<scalar> 
74
(
0
0
0
0
0
0
0
3.55016e-05
0.000290056
0.000708288
0.00126933
0.00195357
0.00269369
0.00345591
0.00457896
0.00575202
0.00692298
0.00807916
0.00921602
0.0103308
0.0114207
0.0124858
0.0135256
0.01454
0.0155284
0.0164897
0.017412
0.0182973
0.0191478
0.0199652
0.0207503
0.0215048
0.0222302
0.0229278
0.0235989
0.0242446
0.0248662
0.0254645
0.0260405
0.0265904
0.0271125
0.0276102
0.0280856
0.02854
0.0289744
0.0293897
0.0297867
0.0301659
0.030528
0.0308733
0.0312024
0.0315156
0.0318134
0.0320961
0.0323641
0.0326179
0.0328579
0.0330846
0.0332983
0.0334997
0.0336893
0.0338675
0.0340351
0.0341926
0.0343406
0.0344797
0.0346105
0.0347333
0.0348484
0.0349556
0.0350542
0.035143
0.0352201
0.0352826
)
;

boundaryField
{
    inlet
    {
        type            calculated;
        value           uniform -0;
    }
    outlet
    {
        type            calculated;
        value           uniform 0.035324;
    }
    fixedWalls
    {
        type            calculated;
        value           uniform 0;
    }
}


// ************************************************************************* //
