/*--------------------------------*- C++ -*----------------------------------*\
| =========                 |                                                 |
| \\      /  F ield         | OpenFOAM: The Open Source CFD Toolbox           |
|  \\    /   O peration     | Version:  2406                                  |
|   \\  /    A nd           | Website:  www.openfoam.com                      |
|    \\/     M anipulation  |                                                 |
\*---------------------------------------------------------------------------*/
FoamFile
{
    version     2.0;
    format      ascii;
    arch        "LSB;label=32;scalar=64";
    class       volScalarField;
    location    "0.6/fluidRegion";
    object      alphaRhoMagU.vapour;
}
// * * * * * * * * * * * * * * * * * * * * * * * * * * * * * * * * * * * * * //

dimensions      [1 -2 -1 0 0 0 0];

internalField   nonuniform List<scalar> 
75
(
0
0
0
0
0
0
0
0.137544
1.06698
2.68939
4.8768
7.54909
10.4867
13.5754
17.7213
22.3871
27.0976
31.7489
36.3272
40.8214
45.2231
49.529
53.7381
57.8487
61.8591
65.7638
69.5282
73.1444
76.6198
79.9615
83.1735
86.2612
89.2307
92.0873
94.8364
97.4824
100.03
102.484
104.84
107.079
109.211
111.253
113.207
115.077
116.866
118.578
120.215
121.78
123.274
124.7
126.059
127.353
128.583
129.751
130.859
131.909
132.902
133.84
134.725
135.559
136.345
137.085
137.781
138.436
139.053
139.634
140.182
140.699
141.187
141.643
142.066
142.45
142.787
143.069
143.243
)
;

boundaryField
{
    inlet
    {
        type            calculated;
        value           uniform 0;
    }
    outlet
    {
        type            calculated;
        value           uniform 143.226;
    }
    fixedWalls
    {
        type            calculated;
        value           nonuniform List<scalar> 
300
(
0
0
0
0
0
0
0
0.137544
1.06698
2.68939
4.8768
7.54909
10.4867
13.5754
17.7213
22.3871
27.0976
31.7489
36.3272
40.8214
45.2231
49.529
53.7381
57.8487
61.8591
65.7638
69.5282
73.1444
76.6198
79.9615
83.1735
86.2612
89.2307
92.0873
94.8364
97.4824
100.03
102.484
104.84
107.079
109.211
111.253
113.207
115.077
116.866
118.578
120.215
121.78
123.274
124.7
126.059
127.353
128.583
129.751
130.859
131.909
132.902
133.84
134.725
135.559
136.345
137.085
137.781
138.436
139.053
139.634
140.182
140.699
141.187
141.643
142.066
142.45
142.787
143.069
143.243
0
0
0
0
0
0
0
0.137544
1.06698
2.68939
4.8768
7.54909
10.4867
13.5754
17.7213
22.3871
27.0976
31.7489
36.3272
40.8214
45.2231
49.529
53.7381
57.8487
61.8591
65.7638
69.5282
73.1444
76.6198
79.9615
83.1735
86.2612
89.2307
92.0873
94.8364
97.4824
100.03
102.484
104.84
107.079
109.211
111.253
113.207
115.077
116.866
118.578
120.215
121.78
123.274
124.7
126.059
127.353
128.583
129.751
130.859
131.909
132.902
133.84
134.725
135.559
136.345
137.085
137.781
138.436
139.053
139.634
140.182
140.699
141.187
141.643
142.066
142.45
142.787
143.069
143.243
0
0
0
0
0
0
0
0.137544
1.06698
2.68939
4.8768
7.54909
10.4867
13.5754
17.7213
22.3871
27.0976
31.7489
36.3272
40.8214
45.2231
49.529
53.7381
57.8487
61.8591
65.7638
69.5282
73.1444
76.6198
79.9615
83.1735
86.2612
89.2307
92.0873
94.8364
97.4824
100.03
102.484
104.84
107.079
109.211
111.253
113.207
115.077
116.866
118.578
120.215
121.78
123.274
124.7
126.059
127.353
128.583
129.751
130.859
131.909
132.902
133.84
134.725
135.559
136.345
137.085
137.781
138.436
139.053
139.634
140.182
140.699
141.187
141.643
142.066
142.45
142.787
143.069
143.243
0
0
0
0
0
0
0
0.137544
1.06698
2.68939
4.8768
7.54909
10.4867
13.5754
17.7213
22.3871
27.0976
31.7489
36.3272
40.8214
45.2231
49.529
53.7381
57.8487
61.8591
65.7638
69.5282
73.1444
76.6198
79.9615
83.1735
86.2612
89.2307
92.0873
94.8364
97.4824
100.03
102.484
104.84
107.079
109.211
111.253
113.207
115.077
116.866
118.578
120.215
121.78
123.274
124.7
126.059
127.353
128.583
129.751
130.859
131.909
132.902
133.84
134.725
135.559
136.345
137.085
137.781
138.436
139.053
139.634
140.182
140.699
141.187
141.643
142.066
142.45
142.787
143.069
143.243
)
;
    }
}


// ************************************************************************* //
