/*--------------------------------*- C++ -*----------------------------------*\
| =========                 |                                                 |
| \\      /  F ield         | OpenFOAM: The Open Source CFD Toolbox           |
|  \\    /   O peration     | Version:  2406                                  |
|   \\  /    A nd           | Website:  www.openfoam.com                      |
|    \\/     M anipulation  |                                                 |
\*---------------------------------------------------------------------------*/
FoamFile
{
    version     2.0;
    format      ascii;
    arch        "LSB;label=32;scalar=64";
    class       volScalarField;
    location    "0.6/fluidRegion";
    object      dgdt.vapour;
}
// * * * * * * * * * * * * * * * * * * * * * * * * * * * * * * * * * * * * * //

dimensions      [0 0 -1 0 0 0 0];

internalField   nonuniform List<scalar> 
75
(
-0
-0
-0
-0
-0
-1.51336e-67
-4.09192e-67
0.231163
1.65528
2.71956
3.64813
4.4491
4.81237
4.95611
7.30222
7.62862
7.61666
7.52253
7.39903
7.25714
7.09812
6.93784
6.77558
6.61105
6.44441
6.26928
6.01681
5.77914
5.55448
5.34233
5.13489
4.93863
4.75202
4.57396
4.40351
4.24
4.08286
3.93161
3.78587
3.61551
3.43379
3.27452
3.12787
2.99018
2.85962
2.73513
2.61599
2.50166
2.39172
2.2858
2.18363
2.08493
1.98951
1.89712
1.80758
1.72073
1.63661
1.55451
1.47454
1.39655
1.32042
1.24602
1.17323
1.10193
1.032
0.963337
0.895846
0.829432
0.764003
0.699466
0.635708
0.572565
0.509667
0.446236
0.404983
)
;

boundaryField
{
    inlet
    {
        type            calculated;
        value           uniform -0;
    }
    outlet
    {
        type            calculated;
        value           uniform 0.404983;
    }
    fixedWalls
    {
        type            calculated;
        value           nonuniform List<scalar> 
300
(
-0
-0
-0
-0
-0
-1.51336e-67
-4.09192e-67
0.231163
1.65528
2.71956
3.64813
4.4491
4.81237
4.95611
7.30222
7.62862
7.61666
7.52253
7.39903
7.25714
7.09812
6.93784
6.77558
6.61105
6.44441
6.26928
6.01681
5.77914
5.55448
5.34233
5.13489
4.93863
4.75202
4.57396
4.40351
4.24
4.08286
3.93161
3.78587
3.61551
3.43379
3.27452
3.12787
2.99018
2.85962
2.73513
2.61599
2.50166
2.39172
2.2858
2.18363
2.08493
1.98951
1.89712
1.80758
1.72073
1.63661
1.55451
1.47454
1.39655
1.32042
1.24602
1.17323
1.10193
1.032
0.963337
0.895846
0.829432
0.764003
0.699466
0.635708
0.572565
0.509667
0.446236
0.404983
-0
-0
-0
-0
-0
-1.51336e-67
-4.09192e-67
0.231163
1.65528
2.71956
3.64813
4.4491
4.81237
4.95611
7.30222
7.62862
7.61666
7.52253
7.39903
7.25714
7.09812
6.93784
6.77558
6.61105
6.44441
6.26928
6.01681
5.77914
5.55448
5.34233
5.13489
4.93863
4.75202
4.57396
4.40351
4.24
4.08286
3.93161
3.78587
3.61551
3.43379
3.27452
3.12787
2.99018
2.85962
2.73513
2.61599
2.50166
2.39172
2.2858
2.18363
2.08493
1.98951
1.89712
1.80758
1.72073
1.63661
1.55451
1.47454
1.39655
1.32042
1.24602
1.17323
1.10193
1.032
0.963337
0.895846
0.829432
0.764003
0.699466
0.635708
0.572565
0.509667
0.446236
0.404983
-0
-0
-0
-0
-0
-1.51336e-67
-4.09192e-67
0.231163
1.65528
2.71956
3.64813
4.4491
4.81237
4.95611
7.30222
7.62862
7.61666
7.52253
7.39903
7.25714
7.09812
6.93784
6.77558
6.61105
6.44441
6.26928
6.01681
5.77914
5.55448
5.34233
5.13489
4.93863
4.75202
4.57396
4.40351
4.24
4.08286
3.93161
3.78587
3.61551
3.43379
3.27452
3.12787
2.99018
2.85962
2.73513
2.61599
2.50166
2.39172
2.2858
2.18363
2.08493
1.98951
1.89712
1.80758
1.72073
1.63661
1.55451
1.47454
1.39655
1.32042
1.24602
1.17323
1.10193
1.032
0.963337
0.895846
0.829432
0.764003
0.699466
0.635708
0.572565
0.509667
0.446236
0.404983
-0
-0
-0
-0
-0
-1.51336e-67
-4.09192e-67
0.231163
1.65528
2.71956
3.64813
4.4491
4.81237
4.95611
7.30222
7.62862
7.61666
7.52253
7.39903
7.25714
7.09812
6.93784
6.77558
6.61105
6.44441
6.26928
6.01681
5.77914
5.55448
5.34233
5.13489
4.93863
4.75202
4.57396
4.40351
4.24
4.08286
3.93161
3.78587
3.61551
3.43379
3.27452
3.12787
2.99018
2.85962
2.73513
2.61599
2.50166
2.39172
2.2858
2.18363
2.08493
1.98951
1.89712
1.80758
1.72073
1.63661
1.55451
1.47454
1.39655
1.32042
1.24602
1.17323
1.10193
1.032
0.963337
0.895846
0.829432
0.764003
0.699466
0.635708
0.572565
0.509667
0.446236
0.404983
)
;
    }
}


// ************************************************************************* //
