/*--------------------------------*- C++ -*----------------------------------*\
| =========                 |                                                 |
| \\      /  F ield         | OpenFOAM: The Open Source CFD Toolbox           |
|  \\    /   O peration     | Version:  2406                                  |
|   \\  /    A nd           | Website:  www.openfoam.com                      |
|    \\/     M anipulation  |                                                 |
\*---------------------------------------------------------------------------*/
FoamFile
{
    version     2.0;
    format      ascii;
    arch        "LSB;label=32;scalar=64";
    class       volScalarField;
    location    "0.6/fluidRegion";
    object      powerDensity.fixedPower;
}
// * * * * * * * * * * * * * * * * * * * * * * * * * * * * * * * * * * * * * //

dimensions      [1 -1 -3 0 0 0 0];

internalField   nonuniform List<scalar> 
75
(
0
0
0
0
0
2.57363e+08
4.62331e+08
6.40797e+08
7.99059e+08
9.36877e+08
1.05e+09
1.1284e+09
1.13566e+09
1.09474e+09
1.04352e+09
9.93918e+08
9.45801e+08
9.01868e+08
8.61428e+08
8.23397e+08
7.86885e+08
7.52735e+08
7.20518e+08
6.89942e+08
6.60818e+08
6.33012e+08
6.0643e+08
5.8103e+08
5.56713e+08
5.33487e+08
5.10687e+08
4.88934e+08
4.68119e+08
4.48165e+08
4.29005e+08
4.10591e+08
3.92882e+08
3.75842e+08
3.5944e+08
3.43644e+08
3.28428e+08
3.13765e+08
2.99629e+08
2.85997e+08
2.72846e+08
2.60154e+08
2.47899e+08
2.36061e+08
2.2462e+08
2.13558e+08
2.02856e+08
1.92497e+08
1.82466e+08
1.72743e+08
1.63313e+08
1.5416e+08
1.4529e+08
1.36634e+08
1.28202e+08
1.1998e+08
1.11956e+08
1.04116e+08
9.64469e+07
8.89359e+07
8.15704e+07
7.43373e+07
6.72239e+07
6.02165e+07
5.3301e+07
4.64608e+07
3.96757e+07
3.29182e+07
2.61473e+07
1.92974e+07
1.22573e+07
)
;

boundaryField
{
    inlet
    {
        type            zeroGradient;
    }
    outlet
    {
        type            zeroGradient;
    }
    fixedWalls
    {
        type            zeroGradient;
    }
}


// ************************************************************************* //
