/*--------------------------------*- C++ -*----------------------------------*\
| =========                 |                                                 |
| \\      /  F ield         | OpenFOAM: The Open Source CFD Toolbox           |
|  \\    /   O peration     | Version:  2406                                  |
|   \\  /    A nd           | Website:  www.openfoam.com                      |
|    \\/     M anipulation  |                                                 |
\*---------------------------------------------------------------------------*/
FoamFile
{
    version     2.0;
    format      ascii;
    arch        "LSB;label=32;scalar=64";
    class       volScalarField;
    location    "30/fluidRegion";
    object      alphaRhoMagU.vapour;
}
// * * * * * * * * * * * * * * * * * * * * * * * * * * * * * * * * * * * * * //

dimensions      [1 -2 -1 0 0 0 0];

internalField   nonuniform List<scalar> 
75
(
0
0
0
0
0
0
0
0
0
0
0
0
0.158007
0.456144
0.868765
1.39867
2.0516
2.83971
3.77509
4.86177
6.07885
7.50011
9.151
10.8842
12.6082
14.2965
15.9408
17.537
19.0834
20.5745
21.9999
23.3588
24.6548
25.891
27.0704
28.1958
29.2698
30.2946
31.2727
32.206
33.0966
33.9465
34.7573
35.5308
36.2684
36.9716
37.6426
38.283
38.8938
39.4763
40.0315
40.5603
41.0639
41.5429
41.9983
42.4308
42.8411
43.23
43.5981
43.946
44.2743
44.5834
44.8741
45.1466
45.4015
45.6392
45.8601
46.0646
46.2531
46.426
46.5836
46.7263
46.8545
46.9682
47.0715
)
;

boundaryField
{
    inlet
    {
        type            calculated;
        value           uniform 0;
    }
    outlet
    {
        type            calculated;
        value           uniform 47.0704;
    }
    fixedWalls
    {
        type            calculated;
        value           nonuniform List<scalar> 
300
(
0
0
0
0
0
0
0
0
0
0
0
0
0.158007
0.456144
0.868765
1.39867
2.0516
2.83971
3.77509
4.86177
6.07885
7.50011
9.151
10.8842
12.6082
14.2965
15.9408
17.537
19.0834
20.5745
21.9999
23.3588
24.6548
25.891
27.0704
28.1958
29.2698
30.2946
31.2727
32.206
33.0966
33.9465
34.7573
35.5308
36.2684
36.9716
37.6426
38.283
38.8938
39.4763
40.0315
40.5603
41.0639
41.5429
41.9983
42.4308
42.8411
43.23
43.5981
43.946
44.2743
44.5834
44.8741
45.1466
45.4015
45.6392
45.8601
46.0646
46.2531
46.426
46.5836
46.7263
46.8545
46.9682
47.0715
0
0
0
0
0
0
0
0
0
0
0
0
0.158007
0.456144
0.868765
1.39867
2.0516
2.83971
3.77509
4.86177
6.07885
7.50011
9.151
10.8842
12.6082
14.2965
15.9408
17.537
19.0834
20.5745
21.9999
23.3588
24.6548
25.891
27.0704
28.1958
29.2698
30.2946
31.2727
32.206
33.0966
33.9465
34.7573
35.5308
36.2684
36.9716
37.6426
38.283
38.8938
39.4763
40.0315
40.5603
41.0639
41.5429
41.9983
42.4308
42.8411
43.23
43.5981
43.946
44.2743
44.5834
44.8741
45.1466
45.4015
45.6392
45.8601
46.0646
46.2531
46.426
46.5836
46.7263
46.8545
46.9682
47.0715
0
0
0
0
0
0
0
0
0
0
0
0
0.158007
0.456144
0.868765
1.39867
2.0516
2.83971
3.77509
4.86177
6.07885
7.50011
9.151
10.8842
12.6082
14.2965
15.9408
17.537
19.0834
20.5745
21.9999
23.3588
24.6548
25.891
27.0704
28.1958
29.2698
30.2946
31.2727
32.206
33.0966
33.9465
34.7573
35.5308
36.2684
36.9716
37.6426
38.283
38.8938
39.4763
40.0315
40.5603
41.0639
41.5429
41.9983
42.4308
42.8411
43.23
43.5981
43.946
44.2743
44.5834
44.8741
45.1466
45.4015
45.6392
45.8601
46.0646
46.2531
46.426
46.5836
46.7263
46.8545
46.9682
47.0715
0
0
0
0
0
0
0
0
0
0
0
0
0.158007
0.456144
0.868765
1.39867
2.0516
2.83971
3.77509
4.86177
6.07885
7.50011
9.151
10.8842
12.6082
14.2965
15.9408
17.537
19.0834
20.5745
21.9999
23.3588
24.6548
25.891
27.0704
28.1958
29.2698
30.2946
31.2727
32.206
33.0966
33.9465
34.7573
35.5308
36.2684
36.9716
37.6426
38.283
38.8938
39.4763
40.0315
40.5603
41.0639
41.5429
41.9983
42.4308
42.8411
43.23
43.5981
43.946
44.2743
44.5834
44.8741
45.1466
45.4015
45.6392
45.8601
46.0646
46.2531
46.426
46.5836
46.7263
46.8545
46.9682
47.0715
)
;
    }
}


// ************************************************************************* //
