/*--------------------------------*- C++ -*----------------------------------*\
| =========                 |                                                 |
| \\      /  F ield         | OpenFOAM: The Open Source CFD Toolbox           |
|  \\    /   O peration     | Version:  2406                                  |
|   \\  /    A nd           | Website:  www.openfoam.com                      |
|    \\/     M anipulation  |                                                 |
\*---------------------------------------------------------------------------*/
FoamFile
{
    version     2.0;
    format      ascii;
    arch        "LSB;label=32;scalar=64";
    class       volScalarField;
    location    "30/fluidRegion";
    object      dgdt.vapour;
}
// * * * * * * * * * * * * * * * * * * * * * * * * * * * * * * * * * * * * * //

dimensions      [0 0 -1 0 0 0 0];

internalField   nonuniform List<scalar> 
75
(
-0
-0
-0
-0
-0
-0
-0
-0
-0
-0
-0
-0
0.283102
0.491467
0.685273
0.878135
1.08492
1.3127
1.56109
1.81561
2.01363
2.39284
2.78563
2.83809
2.80425
2.74136
2.66594
2.58485
2.50148
2.40668
2.29206
2.18377
2.08127
1.98415
1.89199
1.80444
1.72117
1.6419
1.56638
1.49436
1.42566
1.36008
1.29746
1.2374
1.17973
1.12481
1.07358
1.02443
0.977221
0.931823
0.888124
0.84602
0.805416
0.76622
0.728348
0.691722
0.656266
0.621911
0.58859
0.556241
0.524807
0.494233
0.46447
0.43547
0.407193
0.379603
0.352669
0.326366
0.300678
0.275593
0.251103
0.227202
0.203872
0.181073
0.160503
)
;

boundaryField
{
    inlet
    {
        type            calculated;
        value           uniform -0;
    }
    outlet
    {
        type            calculated;
        value           uniform 0.160503;
    }
    fixedWalls
    {
        type            calculated;
        value           nonuniform List<scalar> 
300
(
-0
-0
-0
-0
-0
-0
-0
-0
-0
-0
-0
-0
0.283102
0.491467
0.685273
0.878135
1.08492
1.3127
1.56109
1.81561
2.01363
2.39284
2.78563
2.83809
2.80425
2.74136
2.66594
2.58485
2.50148
2.40668
2.29206
2.18377
2.08127
1.98415
1.89199
1.80444
1.72117
1.6419
1.56638
1.49436
1.42566
1.36008
1.29746
1.2374
1.17973
1.12481
1.07358
1.02443
0.977221
0.931823
0.888124
0.84602
0.805416
0.76622
0.728348
0.691722
0.656266
0.621911
0.58859
0.556241
0.524807
0.494233
0.46447
0.43547
0.407193
0.379603
0.352669
0.326366
0.300678
0.275593
0.251103
0.227202
0.203872
0.181073
0.160503
-0
-0
-0
-0
-0
-0
-0
-0
-0
-0
-0
-0
0.283102
0.491467
0.685273
0.878135
1.08492
1.3127
1.56109
1.81561
2.01363
2.39284
2.78563
2.83809
2.80425
2.74136
2.66594
2.58485
2.50148
2.40668
2.29206
2.18377
2.08127
1.98415
1.89199
1.80444
1.72117
1.6419
1.56638
1.49436
1.42566
1.36008
1.29746
1.2374
1.17973
1.12481
1.07358
1.02443
0.977221
0.931823
0.888124
0.84602
0.805416
0.76622
0.728348
0.691722
0.656266
0.621911
0.58859
0.556241
0.524807
0.494233
0.46447
0.43547
0.407193
0.379603
0.352669
0.326366
0.300678
0.275593
0.251103
0.227202
0.203872
0.181073
0.160503
-0
-0
-0
-0
-0
-0
-0
-0
-0
-0
-0
-0
0.283102
0.491467
0.685273
0.878135
1.08492
1.3127
1.56109
1.81561
2.01363
2.39284
2.78563
2.83809
2.80425
2.74136
2.66594
2.58485
2.50148
2.40668
2.29206
2.18377
2.08127
1.98415
1.89199
1.80444
1.72117
1.6419
1.56638
1.49436
1.42566
1.36008
1.29746
1.2374
1.17973
1.12481
1.07358
1.02443
0.977221
0.931823
0.888124
0.84602
0.805416
0.76622
0.728348
0.691722
0.656266
0.621911
0.58859
0.556241
0.524807
0.494233
0.46447
0.43547
0.407193
0.379603
0.352669
0.326366
0.300678
0.275593
0.251103
0.227202
0.203872
0.181073
0.160503
-0
-0
-0
-0
-0
-0
-0
-0
-0
-0
-0
-0
0.283102
0.491467
0.685273
0.878135
1.08492
1.3127
1.56109
1.81561
2.01363
2.39284
2.78563
2.83809
2.80425
2.74136
2.66594
2.58485
2.50148
2.40668
2.29206
2.18377
2.08127
1.98415
1.89199
1.80444
1.72117
1.6419
1.56638
1.49436
1.42566
1.36008
1.29746
1.2374
1.17973
1.12481
1.07358
1.02443
0.977221
0.931823
0.888124
0.84602
0.805416
0.76622
0.728348
0.691722
0.656266
0.621911
0.58859
0.556241
0.524807
0.494233
0.46447
0.43547
0.407193
0.379603
0.352669
0.326366
0.300678
0.275593
0.251103
0.227202
0.203872
0.181073
0.160503
)
;
    }
}


// ************************************************************************* //
