/*--------------------------------*- C++ -*----------------------------------*\
| =========                 |                                                 |
| \\      /  F ield         | OpenFOAM: The Open Source CFD Toolbox           |
|  \\    /   O peration     | Version:  2406                                  |
|   \\  /    A nd           | Website:  www.openfoam.com                      |
|    \\/     M anipulation  |                                                 |
\*---------------------------------------------------------------------------*/
FoamFile
{
    version     2.0;
    format      ascii;
    arch        "LSB;label=32;scalar=64";
    class       volTensorField;
    location    "30/fluidRegion";
    object      Kd.liquid.structure;
}
// * * * * * * * * * * * * * * * * * * * * * * * * * * * * * * * * * * * * * //

dimensions      [1 -3 -1 0 0 0 0];

internalField   nonuniform List<tensor> 
75
(
(418.492 0 0 0 418.492 0 0 0 418.492)
(418.492 0 0 0 418.492 0 0 0 418.492)
(418.492 0 0 0 418.492 0 0 0 418.492)
(418.492 0 0 0 418.492 0 0 0 418.492)
(418.492 0 0 0 418.492 0 0 0 418.492)
(418.337 0 0 0 418.337 0 0 0 418.337)
(418.086 0 0 0 418.086 0 0 0 418.086)
(417.745 0 0 0 417.745 0 0 0 417.745)
(417.321 0 0 0 417.321 0 0 0 417.321)
(416.822 0 0 0 416.822 0 0 0 416.822)
(416.254 0 0 0 416.254 0 0 0 416.254)
(415.626 0 0 0 415.626 0 0 0 415.626)
(443.468 0 0 0 443.468 0 0 0 443.468)
(488.903 0 0 0 488.903 0 0 0 488.903)
(545.778 0 0 0 545.778 0 0 0 545.778)
(613.042 0 0 0 613.042 0 0 0 613.042)
(689.857 0 0 0 689.857 0 0 0 689.857)
(776.083 0 0 0 776.083 0 0 0 776.083)
(871.417 0 0 0 871.417 0 0 0 871.417)
(974.789 0 0 0 974.789 0 0 0 974.789)
(1082.91 0 0 0 1082.91 0 0 0 1082.91)
(1200.54 0 0 0 1200.54 0 0 0 1200.54)
(1328.8 0 0 0 1328.8 0 0 0 1328.8)
(1455.79 0 0 0 1455.79 0 0 0 1455.79)
(1574.57 0 0 0 1574.57 0 0 0 1574.57)
(1684.65 0 0 0 1684.65 0 0 0 1684.65)
(1786.83 0 0 0 1786.83 0 0 0 1786.83)
(1881.98 0 0 0 1881.98 0 0 0 1881.98)
(1970.88 0 0 0 1970.88 0 0 0 1970.88)
(2053.97 0 0 0 2053.97 0 0 0 2053.97)
(2131.26 0 0 0 2131.26 0 0 0 2131.26)
(2203.14 0 0 0 2203.14 0 0 0 2203.14)
(2270.21 0 0 0 2270.21 0 0 0 2270.21)
(2332.97 0 0 0 2332.97 0 0 0 2332.97)
(2391.83 0 0 0 2391.83 0 0 0 2391.83)
(2447.15 0 0 0 2447.15 0 0 0 2447.15)
(2499.21 0 0 0 2499.21 0 0 0 2499.21)
(2548.28 0 0 0 2548.28 0 0 0 2548.28)
(2594.59 0 0 0 2594.59 0 0 0 2594.59)
(2638.33 0 0 0 2638.33 0 0 0 2638.33)
(2679.69 0 0 0 2679.69 0 0 0 2679.69)
(2718.81 0 0 0 2718.81 0 0 0 2718.81)
(2755.85 0 0 0 2755.85 0 0 0 2755.85)
(2790.93 0 0 0 2790.93 0 0 0 2790.93)
(2824.16 0 0 0 2824.16 0 0 0 2824.16)
(2855.66 0 0 0 2855.66 0 0 0 2855.66)
(2885.55 0 0 0 2885.55 0 0 0 2885.55)
(2913.92 0 0 0 2913.92 0 0 0 2913.92)
(2940.86 0 0 0 2940.86 0 0 0 2940.86)
(2966.45 0 0 0 2966.45 0 0 0 2966.45)
(2990.75 0 0 0 2990.75 0 0 0 2990.75)
(3013.82 0 0 0 3013.82 0 0 0 3013.82)
(3035.72 0 0 0 3035.72 0 0 0 3035.72)
(3056.5 0 0 0 3056.5 0 0 0 3056.5)
(3076.21 0 0 0 3076.21 0 0 0 3076.21)
(3094.89 0 0 0 3094.89 0 0 0 3094.89)
(3112.59 0 0 0 3112.59 0 0 0 3112.59)
(3129.34 0 0 0 3129.34 0 0 0 3129.34)
(3145.18 0 0 0 3145.18 0 0 0 3145.18)
(3160.14 0 0 0 3160.14 0 0 0 3160.14)
(3174.26 0 0 0 3174.26 0 0 0 3174.26)
(3187.56 0 0 0 3187.56 0 0 0 3187.56)
(3200.06 0 0 0 3200.06 0 0 0 3200.06)
(3211.8 0 0 0 3211.8 0 0 0 3211.8)
(3222.8 0 0 0 3222.8 0 0 0 3222.8)
(3233.07 0 0 0 3233.07 0 0 0 3233.07)
(3242.65 0 0 0 3242.65 0 0 0 3242.65)
(3251.54 0 0 0 3251.54 0 0 0 3251.54)
(3259.77 0 0 0 3259.77 0 0 0 3259.77)
(3267.35 0 0 0 3267.35 0 0 0 3267.35)
(3274.31 0 0 0 3274.31 0 0 0 3274.31)
(3280.66 0 0 0 3280.66 0 0 0 3280.66)
(3286.41 0 0 0 3286.41 0 0 0 3286.41)
(3291.6 0 0 0 3291.6 0 0 0 3291.6)
(3296.14 0 0 0 3296.14 0 0 0 3296.14)
)
;

boundaryField
{
    inlet
    {
        type            zeroGradient;
    }
    outlet
    {
        type            zeroGradient;
    }
    fixedWalls
    {
        type            zeroGradient;
    }
}


// ************************************************************************* //
