/*--------------------------------*- C++ -*----------------------------------*\
| =========                 |                                                 |
| \\      /  F ield         | OpenFOAM: The Open Source CFD Toolbox           |
|  \\    /   O peration     | Version:  2406                                  |
|   \\  /    A nd           | Website:  www.openfoam.com                      |
|    \\/     M anipulation  |                                                 |
\*---------------------------------------------------------------------------*/
FoamFile
{
    version     2.0;
    format      ascii;
    arch        "LSB;label=32;scalar=64";
    class       volScalarField;
    location    "30/fluidRegion";
    object      T.vapour;
}
// * * * * * * * * * * * * * * * * * * * * * * * * * * * * * * * * * * * * * //

dimensions      [0 0 0 1 0 0 0];

internalField   nonuniform List<scalar> 
75
(
561.073
561.073
561.073
561.072
561.072
561.072
561.072
561.072
561.071
561.071
561.071
561.071
561.07
561.07
561.07
561.07
561.069
561.069
561.068
561.067
561.067
561.066
561.065
561.064
561.064
561.063
561.062
561.061
561.06
561.06
561.059
561.058
561.057
561.056
561.055
561.054
561.054
561.053
561.052
561.051
561.05
561.049
561.048
561.047
561.046
561.046
561.045
561.044
561.043
561.042
561.041
561.04
561.039
561.038
561.037
561.036
561.036
561.035
561.034
561.033
561.032
561.031
561.03
561.029
561.028
561.028
561.027
561.026
561.025
561.024
561.023
561.022
561.022
561.021
561.02
)
;

boundaryField
{
    inlet
    {
        type            fixedValue;
        value           uniform 543.15;
    }
    outlet
    {
        type            zeroGradient;
    }
    fixedWalls
    {
        type            zeroGradient;
    }
}


// ************************************************************************* //
