/*--------------------------------*- C++ -*----------------------------------*\
| =========                 |                                                 |
| \\      /  F ield         | OpenFOAM: The Open Source CFD Toolbox           |
|  \\    /   O peration     | Version:  2406                                  |
|   \\  /    A nd           | Website:  www.openfoam.com                      |
|    \\/     M anipulation  |                                                 |
\*---------------------------------------------------------------------------*/
FoamFile
{
    version     2.0;
    format      ascii;
    arch        "LSB;label=32;scalar=64";
    class       volScalarField;
    location    "30/fluidRegion";
    object      alphaRhoMagU.vapour;
}
// * * * * * * * * * * * * * * * * * * * * * * * * * * * * * * * * * * * * * //

dimensions      [1 -2 -1 0 0 0 0];

internalField   nonuniform List<scalar> 
75
(
0
0
0
0
0
0
0.126501
0.794198
1.94723
3.55035
5.6792
9.1786
13.4841
17.9095
22.2556
26.4964
30.6246
34.6435
38.556
42.3632
46.0662
49.6689
53.1626
56.5091
59.7214
62.8217
65.803
68.6708
71.4286
74.0803
76.6288
79.0781
81.4325
83.6958
85.8715
87.9631
89.9735
91.9056
93.7621
95.5456
97.2585
98.903
100.481
101.996
103.448
104.84
106.174
107.452
108.675
109.844
110.962
112.029
113.047
114.018
114.943
115.822
116.657
117.449
118.199
118.909
119.578
120.207
120.799
121.353
121.87
122.35
122.796
123.206
123.582
123.925
124.235
124.511
124.756
124.95
125.125
)
;

boundaryField
{
    inlet
    {
        type            calculated;
        value           uniform 0;
    }
    outlet
    {
        type            calculated;
        value           uniform 125.117;
    }
    fixedWalls
    {
        type            calculated;
        value           nonuniform List<scalar> 
300
(
0
0
0
0
0
0
0.126501
0.794198
1.94723
3.55035
5.6792
9.1786
13.4841
17.9095
22.2556
26.4964
30.6246
34.6435
38.556
42.3632
46.0662
49.6689
53.1626
56.5091
59.7214
62.8217
65.803
68.6708
71.4286
74.0803
76.6288
79.0781
81.4325
83.6958
85.8715
87.9631
89.9735
91.9056
93.7621
95.5456
97.2585
98.903
100.481
101.996
103.448
104.84
106.174
107.452
108.675
109.844
110.962
112.029
113.047
114.018
114.943
115.822
116.657
117.449
118.199
118.909
119.578
120.207
120.799
121.353
121.87
122.35
122.796
123.206
123.582
123.925
124.235
124.511
124.756
124.95
125.125
0
0
0
0
0
0
0.126501
0.794198
1.94723
3.55035
5.6792
9.1786
13.4841
17.9095
22.2556
26.4964
30.6246
34.6435
38.556
42.3632
46.0662
49.6689
53.1626
56.5091
59.7214
62.8217
65.803
68.6708
71.4286
74.0803
76.6288
79.0781
81.4325
83.6958
85.8715
87.9631
89.9735
91.9056
93.7621
95.5456
97.2585
98.903
100.481
101.996
103.448
104.84
106.174
107.452
108.675
109.844
110.962
112.029
113.047
114.018
114.943
115.822
116.657
117.449
118.199
118.909
119.578
120.207
120.799
121.353
121.87
122.35
122.796
123.206
123.582
123.925
124.235
124.511
124.756
124.95
125.125
0
0
0
0
0
0
0.126501
0.794198
1.94723
3.55035
5.6792
9.1786
13.4841
17.9095
22.2556
26.4964
30.6246
34.6435
38.556
42.3632
46.0662
49.6689
53.1626
56.5091
59.7214
62.8217
65.803
68.6708
71.4286
74.0803
76.6288
79.0781
81.4325
83.6958
85.8715
87.9631
89.9735
91.9056
93.7621
95.5456
97.2585
98.903
100.481
101.996
103.448
104.84
106.174
107.452
108.675
109.844
110.962
112.029
113.047
114.018
114.943
115.822
116.657
117.449
118.199
118.909
119.578
120.207
120.799
121.353
121.87
122.35
122.796
123.206
123.582
123.925
124.235
124.511
124.756
124.95
125.125
0
0
0
0
0
0
0.126501
0.794198
1.94723
3.55035
5.6792
9.1786
13.4841
17.9095
22.2556
26.4964
30.6246
34.6435
38.556
42.3632
46.0662
49.6689
53.1626
56.5091
59.7214
62.8217
65.803
68.6708
71.4286
74.0803
76.6288
79.0781
81.4325
83.6958
85.8715
87.9631
89.9735
91.9056
93.7621
95.5456
97.2585
98.903
100.481
101.996
103.448
104.84
106.174
107.452
108.675
109.844
110.962
112.029
113.047
114.018
114.943
115.822
116.657
117.449
118.199
118.909
119.578
120.207
120.799
121.353
121.87
122.35
122.796
123.206
123.582
123.925
124.235
124.511
124.756
124.95
125.125
)
;
    }
}


// ************************************************************************* //
