/*--------------------------------*- C++ -*----------------------------------*\
| =========                 |                                                 |
| \\      /  F ield         | OpenFOAM: The Open Source CFD Toolbox           |
|  \\    /   O peration     | Version:  2406                                  |
|   \\  /    A nd           | Website:  www.openfoam.com                      |
|    \\/     M anipulation  |                                                 |
\*---------------------------------------------------------------------------*/
FoamFile
{
    version     2.0;
    format      ascii;
    arch        "LSB;label=32;scalar=64";
    class       volScalarField;
    location    "30/fluidRegion";
    object      dgdt.vapour;
}
// * * * * * * * * * * * * * * * * * * * * * * * * * * * * * * * * * * * * * //

dimensions      [0 0 -1 0 0 0 0];

internalField   nonuniform List<scalar> 
75
(
-0
-0
-0
-0
-0
-0
0.216672
1.20926
1.95212
2.71656
3.57234
6.43678
7.19087
7.21292
7.065
6.88268
6.68631
6.50071
6.31759
6.13799
5.96189
5.79319
5.62876
5.41554
5.18582
4.97089
4.76903
4.57896
4.39912
4.2273
4.06068
3.90243
3.75138
3.60675
3.46791
3.33438
3.20575
3.08169
2.96193
2.84623
2.73438
2.62618
2.52145
2.42006
2.32185
2.22671
2.13477
2.04526
1.95833
1.87389
1.79182
1.71203
1.63442
1.5589
1.48534
1.41364
1.3437
1.27543
1.20873
1.14352
1.07971
1.01722
0.955966
0.895872
0.836866
0.77888
0.721845
0.665697
0.610368
0.555787
0.501867
0.448503
0.3955
0.342201
0.300164
)
;

boundaryField
{
    inlet
    {
        type            calculated;
        value           uniform -0;
    }
    outlet
    {
        type            calculated;
        value           uniform 0.300164;
    }
    fixedWalls
    {
        type            calculated;
        value           nonuniform List<scalar> 
300
(
-0
-0
-0
-0
-0
-0
0.216672
1.20926
1.95212
2.71656
3.57234
6.43678
7.19087
7.21292
7.065
6.88268
6.68631
6.50071
6.31759
6.13799
5.96189
5.79319
5.62876
5.41554
5.18582
4.97089
4.76903
4.57896
4.39912
4.2273
4.06068
3.90243
3.75138
3.60675
3.46791
3.33438
3.20575
3.08169
2.96193
2.84623
2.73438
2.62618
2.52145
2.42006
2.32185
2.22671
2.13477
2.04526
1.95833
1.87389
1.79182
1.71203
1.63442
1.5589
1.48534
1.41364
1.3437
1.27543
1.20873
1.14352
1.07971
1.01722
0.955966
0.895872
0.836866
0.77888
0.721845
0.665697
0.610368
0.555787
0.501867
0.448503
0.3955
0.342201
0.300164
-0
-0
-0
-0
-0
-0
0.216672
1.20926
1.95212
2.71656
3.57234
6.43678
7.19087
7.21292
7.065
6.88268
6.68631
6.50071
6.31759
6.13799
5.96189
5.79319
5.62876
5.41554
5.18582
4.97089
4.76903
4.57896
4.39912
4.2273
4.06068
3.90243
3.75138
3.60675
3.46791
3.33438
3.20575
3.08169
2.96193
2.84623
2.73438
2.62618
2.52145
2.42006
2.32185
2.22671
2.13477
2.04526
1.95833
1.87389
1.79182
1.71203
1.63442
1.5589
1.48534
1.41364
1.3437
1.27543
1.20873
1.14352
1.07971
1.01722
0.955966
0.895872
0.836866
0.77888
0.721845
0.665697
0.610368
0.555787
0.501867
0.448503
0.3955
0.342201
0.300164
-0
-0
-0
-0
-0
-0
0.216672
1.20926
1.95212
2.71656
3.57234
6.43678
7.19087
7.21292
7.065
6.88268
6.68631
6.50071
6.31759
6.13799
5.96189
5.79319
5.62876
5.41554
5.18582
4.97089
4.76903
4.57896
4.39912
4.2273
4.06068
3.90243
3.75138
3.60675
3.46791
3.33438
3.20575
3.08169
2.96193
2.84623
2.73438
2.62618
2.52145
2.42006
2.32185
2.22671
2.13477
2.04526
1.95833
1.87389
1.79182
1.71203
1.63442
1.5589
1.48534
1.41364
1.3437
1.27543
1.20873
1.14352
1.07971
1.01722
0.955966
0.895872
0.836866
0.77888
0.721845
0.665697
0.610368
0.555787
0.501867
0.448503
0.3955
0.342201
0.300164
-0
-0
-0
-0
-0
-0
0.216672
1.20926
1.95212
2.71656
3.57234
6.43678
7.19087
7.21292
7.065
6.88268
6.68631
6.50071
6.31759
6.13799
5.96189
5.79319
5.62876
5.41554
5.18582
4.97089
4.76903
4.57896
4.39912
4.2273
4.06068
3.90243
3.75138
3.60675
3.46791
3.33438
3.20575
3.08169
2.96193
2.84623
2.73438
2.62618
2.52145
2.42006
2.32185
2.22671
2.13477
2.04526
1.95833
1.87389
1.79182
1.71203
1.63442
1.5589
1.48534
1.41364
1.3437
1.27543
1.20873
1.14352
1.07971
1.01722
0.955966
0.895872
0.836866
0.77888
0.721845
0.665697
0.610368
0.555787
0.501867
0.448503
0.3955
0.342201
0.300164
)
;
    }
}


// ************************************************************************* //
