/*--------------------------------*- C++ -*----------------------------------*\
| =========                 |                                                 |
| \\      /  F ield         | OpenFOAM: The Open Source CFD Toolbox           |
|  \\    /   O peration     | Version:  2406                                  |
|   \\  /    A nd           | Website:  www.openfoam.com                      |
|    \\/     M anipulation  |                                                 |
\*---------------------------------------------------------------------------*/
FoamFile
{
    version     2.0;
    format      ascii;
    arch        "LSB;label=32;scalar=64";
    class       volTensorField;
    location    "30/fluidRegion";
    object      Kd.liquid.structure;
}
// * * * * * * * * * * * * * * * * * * * * * * * * * * * * * * * * * * * * * //

dimensions      [1 -3 -1 0 0 0 0];

internalField   nonuniform List<tensor> 
75
(
(418.492 0 0 0 418.492 0 0 0 418.492)
(418.492 0 0 0 418.492 0 0 0 418.492)
(418.492 0 0 0 418.492 0 0 0 418.492)
(418.492 0 0 0 418.492 0 0 0 418.492)
(418.492 0 0 0 418.492 0 0 0 418.492)
(417.899 0 0 0 417.899 0 0 0 417.899)
(440.289 0 0 0 440.289 0 0 0 440.289)
(534.942 0 0 0 534.942 0 0 0 534.942)
(677.303 0 0 0 677.303 0 0 0 677.303)
(849.354 0 0 0 849.354 0 0 0 849.354)
(1047.75 0 0 0 1047.75 0 0 0 1047.75)
(1328.55 0 0 0 1328.55 0 0 0 1328.55)
(1633.83 0 0 0 1633.83 0 0 0 1633.83)
(1907.8 0 0 0 1907.8 0 0 0 1907.8)
(2147.59 0 0 0 2147.59 0 0 0 2147.59)
(2361.16 0 0 0 2361.16 0 0 0 2361.16)
(2554.64 0 0 0 2554.64 0 0 0 2554.64)
(2732.49 0 0 0 2732.49 0 0 0 2732.49)
(2897.85 0 0 0 2897.85 0 0 0 2897.85)
(3052.87 0 0 0 3052.87 0 0 0 3052.87)
(3199.11 0 0 0 3199.11 0 0 0 3199.11)
(3337.71 0 0 0 3337.71 0 0 0 3337.71)
(3470.18 0 0 0 3470.18 0 0 0 3470.18)
(3635.76 0 0 0 3635.76 0 0 0 3635.76)
(3868.89 0 0 0 3868.89 0 0 0 3868.89)
(4095.15 0 0 0 4095.15 0 0 0 4095.15)
(4314.21 0 0 0 4314.21 0 0 0 4314.21)
(4526.69 0 0 0 4526.69 0 0 0 4526.69)
(4732.84 0 0 0 4732.84 0 0 0 4732.84)
(4932.87 0 0 0 4932.87 0 0 0 4932.87)
(5126.87 0 0 0 5126.87 0 0 0 5126.87)
(5315.02 0 0 0 5315.02 0 0 0 5315.02)
(5497.51 0 0 0 5497.51 0 0 0 5497.51)
(5674.47 0 0 0 5674.47 0 0 0 5674.47)
(5846.04 0 0 0 5846.04 0 0 0 5846.04)
(6012.33 0 0 0 6012.33 0 0 0 6012.33)
(6173.44 0 0 0 6173.44 0 0 0 6173.44)
(6329.47 0 0 0 6329.47 0 0 0 6329.47)
(6480.52 0 0 0 6480.52 0 0 0 6480.52)
(6626.67 0 0 0 6626.67 0 0 0 6626.67)
(6768.01 0 0 0 6768.01 0 0 0 6768.01)
(6904.63 0 0 0 6904.63 0 0 0 6904.63)
(7036.6 0 0 0 7036.6 0 0 0 7036.6)
(7164.02 0 0 0 7164.02 0 0 0 7164.02)
(7286.96 0 0 0 7286.96 0 0 0 7286.96)
(7405.5 0 0 0 7405.5 0 0 0 7405.5)
(7519.74 0 0 0 7519.74 0 0 0 7519.74)
(7629.73 0 0 0 7629.73 0 0 0 7629.73)
(7735.56 0 0 0 7735.56 0 0 0 7735.56)
(7837.29 0 0 0 7837.29 0 0 0 7837.29)
(7934.99 0 0 0 7934.99 0 0 0 7934.99)
(8028.75 0 0 0 8028.75 0 0 0 8028.75)
(8118.62 0 0 0 8118.62 0 0 0 8118.62)
(8204.67 0 0 0 8204.67 0 0 0 8204.67)
(8286.97 0 0 0 8286.97 0 0 0 8286.97)
(8365.57 0 0 0 8365.57 0 0 0 8365.57)
(8440.52 0 0 0 8440.52 0 0 0 8440.52)
(8511.89 0 0 0 8511.89 0 0 0 8511.89)
(8579.71 0 0 0 8579.71 0 0 0 8579.71)
(8644.04 0 0 0 8644.04 0 0 0 8644.04)
(8704.93 0 0 0 8704.93 0 0 0 8704.93)
(8762.44 0 0 0 8762.44 0 0 0 8762.44)
(8816.61 0 0 0 8816.61 0 0 0 8816.61)
(8867.51 0 0 0 8867.51 0 0 0 8867.51)
(8915.18 0 0 0 8915.18 0 0 0 8915.18)
(8959.68 0 0 0 8959.68 0 0 0 8959.68)
(9001.07 0 0 0 9001.07 0 0 0 9001.07)
(9039.42 0 0 0 9039.42 0 0 0 9039.42)
(9074.79 0 0 0 9074.79 0 0 0 9074.79)
(9107.26 0 0 0 9107.26 0 0 0 9107.26)
(9136.88 0 0 0 9136.88 0 0 0 9136.88)
(9163.53 0 0 0 9163.53 0 0 0 9163.53)
(9187.43 0 0 0 9187.43 0 0 0 9187.43)
(9203.63 0 0 0 9203.63 0 0 0 9203.63)
(9219.33 0 0 0 9219.33 0 0 0 9219.33)
)
;

boundaryField
{
    inlet
    {
        type            zeroGradient;
    }
    outlet
    {
        type            zeroGradient;
    }
    fixedWalls
    {
        type            zeroGradient;
    }
}


// ************************************************************************* //
